 Entering Gaussian System, Link 0=g09
 Input=2PG_orig.gau
 Output=2PG_orig.log
 Initial command:
 /usr/common/usg/g09/c1/g09/l1.exe /scratch/scratchdirs/nmih/Gau-28010.inp -scrdir=/scratch/scratchdirs/nmih/
 Entering Link 1 = /usr/common/usg/g09/c1/g09/l1.exe PID=     28011.
  
 Copyright (c) 1988,1990,1992,1993,1995,1998,2003,2009,2011,
            Gaussian, Inc.  All Rights Reserved.
  
 This is part of the Gaussian(R) 09 program.  It is based on
 the Gaussian(R) 03 system (copyright 2003, Gaussian, Inc.),
 the Gaussian(R) 98 system (copyright 1998, Gaussian, Inc.),
 the Gaussian(R) 94 system (copyright 1995, Gaussian, Inc.),
 the Gaussian 92(TM) system (copyright 1992, Gaussian, Inc.),
 the Gaussian 90(TM) system (copyright 1990, Gaussian, Inc.),
 the Gaussian 88(TM) system (copyright 1988, Gaussian, Inc.),
 the Gaussian 86(TM) system (copyright 1986, Carnegie Mellon
 University), and the Gaussian 82(TM) system (copyright 1983,
 Carnegie Mellon University). Gaussian is a federally registered
 trademark of Gaussian, Inc.
  
 This software contains proprietary and confidential information,
 including trade secrets, belonging to Gaussian, Inc.
  
 This software is provided under written license and may be
 used, copied, transmitted, or stored only in accord with that
 written license.
  
 The following legend is applicable only to US Government
 contracts under FAR:
  
                    RESTRICTED RIGHTS LEGEND
  
 Use, reproduction and disclosure by the US Government is
 subject to restrictions as set forth in subparagraphs (a)
 and (c) of the Commercial Computer Software - Restricted
 Rights clause in FAR 52.227-19.
  
 Gaussian, Inc.
 340 Quinnipiac St., Bldg. 40, Wallingford CT 06492
  
  
 ---------------------------------------------------------------
 Warning -- This program may not be used in any manner that
 competes with the business of Gaussian, Inc. or will provide
 assistance to any competitor of Gaussian, Inc.  The licensee
 of this program is prohibited from giving any competitor of
 Gaussian, Inc. access to this program.  By using this program,
 the user acknowledges that Gaussian, Inc. is engaged in the
 business of creating and licensing software in the field of
 computational chemistry and represents and warrants to the
 licensee that it is not a competitor of Gaussian, Inc. and that
 it will not use this program in any manner prohibited above.
 ---------------------------------------------------------------
  

 Cite this work as:
 Gaussian 09, Revision C.01,
 M. J. Frisch, G. W. Trucks, H. B. Schlegel, G. E. Scuseria, 
 M. A. Robb, J. R. Cheeseman, G. Scalmani, V. Barone, B. Mennucci, 
 G. A. Petersson, H. Nakatsuji, M. Caricato, X. Li, H. P. Hratchian, 
 A. F. Izmaylov, J. Bloino, G. Zheng, J. L. Sonnenberg, M. Hada, 
 M. Ehara, K. Toyota, R. Fukuda, J. Hasegawa, M. Ishida, T. Nakajima, 
 Y. Honda, O. Kitao, H. Nakai, T. Vreven, J. A. Montgomery, Jr., 
 J. E. Peralta, F. Ogliaro, M. Bearpark, J. J. Heyd, E. Brothers, 
 K. N. Kudin, V. N. Staroverov, T. Keith, R. Kobayashi, J. Normand, 
 K. Raghavachari, A. Rendell, J. C. Burant, S. S. Iyengar, J. Tomasi, 
 M. Cossi, N. Rega, J. M. Millam, M. Klene, J. E. Knox, J. B. Cross, 
 V. Bakken, C. Adamo, J. Jaramillo, R. Gomperts, R. E. Stratmann, 
 O. Yazyev, A. J. Austin, R. Cammi, C. Pomelli, J. W. Ochterski, 
 R. L. Martin, K. Morokuma, V. G. Zakrzewski, G. A. Voth, 
 P. Salvador, J. J. Dannenberg, S. Dapprich, A. D. Daniels, 
 O. Farkas, J. B. Foresman, J. V. Ortiz, J. Cioslowski, 
 and D. J. Fox, Gaussian, Inc., Wallingford CT, 2010.
 
 ******************************************
 Gaussian 09:  AM64L-G09RevC.01 23-Sep-2011
                16-Sep-2015 
 ******************************************
 %chk=2PG_orig.chk
 ----------------------------------------------
 #HF/6-31G* Test Pop=MK iop(6/33=2) iop(6/42=6)
 ----------------------------------------------
 1/38=1/1;
 2/12=2,17=6,18=5,40=1/2;
 3/5=1,6=6,7=1,11=9,16=1,25=1,30=1/1,2,3;
 4//1;
 5/5=2,38=5/2;
 6/7=2,8=2,9=2,10=2,15=8,20=1,28=1,33=2,42=6/1,2;
 99/5=1,9=1/99;
 --------
 18 atoms
 --------
 Charge =  0 Multiplicity = 1
 Symbolic Z-Matrix:
 C                    -0.731     0.054    -1.975 
 C                     0.297    -0.09     -0.883 
 C                     1.685     0.219    -1.447 
 P                    -0.238    -0.064     1.498 
 O                    -1.627     0.855    -1.858 
 O                    -0.651    -0.707    -3.077 
 O                     2.661     0.082    -0.411 
 O                     0.        0.821     0.175 
 O                     0.987    -0.837     1.8 
 O                    -0.58      0.904     2.738 
 O                    -1.465    -1.076     1.254 
 H                     0.279    -1.11     -0.5 
 H                     1.703     1.239    -1.83 
 H                     1.913    -0.476    -2.255 
 H                    -1.311    -0.614    -3.778 
 H                     3.519     0.285    -0.808 
 H                    -0.714     0.335     3.508 
 H                    -2.241    -0.533     1.06 
 
                          Input orientation:                          
 ---------------------------------------------------------------------
 Center     Atomic      Atomic             Coordinates (Angstroms)
 Number     Number       Type             X           Y           Z
 ---------------------------------------------------------------------
      1          6           0       -0.731000    0.054000   -1.975000
      2          6           0        0.297000   -0.090000   -0.883000
      3          6           0        1.685000    0.219000   -1.447000
      4         15           0       -0.238000   -0.064000    1.498000
      5          8           0       -1.627000    0.855000   -1.858000
      6          8           0       -0.651000   -0.707000   -3.077000
      7          8           0        2.661000    0.082000   -0.411000
      8          8           0        0.000000    0.821000    0.175000
      9          8           0        0.987000   -0.837000    1.800000
     10          8           0       -0.580000    0.904000    2.738000
     11          8           0       -1.465000   -1.076000    1.254000
     12          1           0        0.279000   -1.110000   -0.500000
     13          1           0        1.703000    1.239000   -1.830000
     14          1           0        1.913000   -0.476000   -2.255000
     15          1           0       -1.311000   -0.614000   -3.778000
     16          1           0        3.519000    0.285000   -0.808000
     17          1           0       -0.714000    0.335000    3.508000
     18          1           0       -2.241000   -0.533000    1.060000
 ---------------------------------------------------------------------
                    Distance matrix (angstroms):
                    1          2          3          4          5
     1  C    0.000000
     2  C    1.506647   0.000000
     3  C    2.478521   1.529745   0.000000
     4  P    3.509801   2.440504   3.528604   0.000000
     5  O    1.207521   2.354873   3.397464   3.746547   0.000000
     6  O    1.341613   2.468406   2.995208   4.638388   2.208706
     7  O    3.735310   2.416788   1.429909   3.474161   4.591109
     8  O    2.396904   1.427408   2.415060   1.609409   2.604107
     9  O    4.242173   2.869250   3.485018   1.479648   4.803834
    10  O    4.791416   3.856009   4.807668   1.609841   4.714003
    11  O    3.498871   2.940002   4.346829   1.609102   3.665999
    12  H    2.133218   1.089685   2.154039   2.313744   3.055851
    13  H    2.711016   2.154039   1.089685   4.067047   3.352184
    14  H    2.711095   2.154724   1.089896   4.345291   3.802732
    15  H    2.008341   3.352800   3.886318   5.412024   2.438076
    16  H    4.413360   3.244616   1.943253   4.422045   5.282870
    17  H    5.490222   4.525884   5.506422   2.103777   5.467900
    18  H    3.440333   3.226909   4.718477   2.103286   3.289113
                    6          7          8          9         10
     6  O    0.000000
     7  O    4.324283   0.000000
     8  O    3.651587   2.823196   0.000000
     9  O    5.146365   2.921534   2.522649   0.000000
    10  O    6.034450   4.593035   2.629117   2.523175   0.000000
    11  O    4.422253   4.597506   2.628512   2.523399   2.627904
    12  H    2.769158   2.665091   2.064516   2.421940   3.908800
    13  H    3.298976   2.066392   2.663636   4.242562   5.117708
    14  H    2.702432   2.066689   3.353607   4.175024   5.748869
    15  H    0.967290   5.253369   4.405015   6.036938   6.730300
    16  H    4.849879   0.966945   3.692824   3.804152   5.455188
    17  H    6.667230   5.178146   3.443092   2.680345   0.966756
    18  H    4.435442   5.154772   2.763806   3.325658   2.763978
                   11         12         13         14         15
    11  O    0.000000
    12  H    2.473703   0.000000
    13  H    4.990642   3.051963   0.000000
    14  H    4.907542   2.480310   1.779312   0.000000
    15  H    5.055510   3.676874   4.038875   3.568298   0.000000
    16  H    5.562771   3.540973   2.291824   2.291760   5.740906
    17  H    2.763230   4.374716   5.929026   6.385219   7.371757
    18  H    0.966779   3.019425   5.200694   5.314903   4.927241
                   16         17         18
    16  H    0.000000
    17  H    6.045548   0.000000
    18  H    6.110331   3.012948   0.000000
 Stoichiometry    C3H7O7P
 Framework group  C1[X(C3H7O7P)]
 Deg. of freedom    48
 Full point group                 C1      NOp   1
 Largest Abelian subgroup         C1      NOp   1
 Largest concise Abelian subgroup C1      NOp   1
                         Standard orientation:                         
 ---------------------------------------------------------------------
 Center     Atomic      Atomic             Coordinates (Angstroms)
 Number     Number       Type             X           Y           Z
 ---------------------------------------------------------------------
      1          6           0        1.919461   -0.807232   -0.078177
      2          6           0        0.860360    0.251598    0.086659
      3          6           0        1.465919    1.626255   -0.202717
      4         15           0       -1.536145   -0.209084    0.062216
      5          8           0        1.771796   -1.686305   -0.892750
      6          8           0        3.026230   -0.773466    0.679351
      7          8           0        0.461155    2.631496   -0.045938
      8          8           0       -0.209707    0.001995   -0.824466
      9          8           0       -1.797192    1.012186    0.855760
     10          8           0       -2.789729   -0.497126   -0.905848
     11          8           0       -1.326499   -1.459014    1.053645
     12          1           0        0.480779    0.229185    1.107849
     13          1           0        1.845500    1.648667   -1.223906
     14          1           0        2.283168    1.818068    0.492398
     15          1           0        3.706105   -1.453248    0.572975
     16          1           0        0.883776    3.479945   -0.237009
     17          1           0       -3.561389   -0.616320   -0.335804
     18          1           0       -1.158641   -2.231884    0.497627
 ---------------------------------------------------------------------
 Rotational constants (GHZ):      1.3826030      0.7510008      0.5727985
 Standard basis: 6-31G(d) (6D, 7F)
 There are   183 symmetry adapted basis functions of A   symmetry.
 Integral buffers will be    131072 words long.
 Raffenetti 1 integral format.
 Two-electron integral symmetry is turned on.
   183 basis functions,   360 primitive gaussians,   183 cartesian basis functions
    48 alpha electrons       48 beta electrons
       nuclear repulsion energy       835.3017318934 Hartrees.
 NAtoms=   18 NActive=   18 NUniq=   18 SFac= 1.00D+00 NAtFMM=   60 NAOKFM=F Big=F
 One-electron integrals computed using PRISM.
 NBasis=   183 RedAO= T  NBF=   183
 NBsUse=   183 1.00D-06 NBFU=   183
 Harris functional with IExCor=  205 diagonalized for initial guess.
 ExpMin= 9.98D-02 ExpMax= 1.94D+04 ExpMxC= 2.91D+03 IAcc=2 IRadAn=         4 AccDes= 0.00D+00
 HarFok:  IExCor=  205 AccDes= 0.00D+00 IRadAn=         4 IDoV= 1
 ScaDFX=  1.000000  1.000000  1.000000  1.000000
 FoFCou: FMM=F IPFlag=           0 FMFlag=      100000 FMFlg1=           0
         NFxFlg=           0 DoJE=T BraDBF=F KetDBF=T FulRan=T
         Omega=  0.000000  0.000000  1.000000  0.000000  0.000000 ICntrl=     500 IOpCl=  0
         NMat0=    1 NMatS0=    1 NMatT0=    0 NMatD0=    1 NMtDS0=    0 NMtDT0=    0
         I1Cent=           4 NGrid=           0.
 Petite list used in FoFCou.
 Initial guess orbital symmetries:
       Occupied  (A) (A) (A) (A) (A) (A) (A) (A) (A) (A) (A) (A)
                 (A) (A) (A) (A) (A) (A) (A) (A) (A) (A) (A) (A)
                 (A) (A) (A) (A) (A) (A) (A) (A) (A) (A) (A) (A)
                 (A) (A) (A) (A) (A) (A) (A) (A) (A) (A) (A) (A)
       Virtual   (A) (A) (A) (A) (A) (A) (A) (A) (A) (A) (A) (A)
                 (A) (A) (A) (A) (A) (A) (A) (A) (A) (A) (A) (A)
                 (A) (A) (A) (A) (A) (A) (A) (A) (A) (A) (A) (A)
                 (A) (A) (A) (A) (A) (A) (A) (A) (A) (A) (A) (A)
                 (A) (A) (A) (A) (A) (A) (A) (A) (A) (A) (A) (A)
                 (A) (A) (A) (A) (A) (A) (A) (A) (A) (A) (A) (A)
                 (A) (A) (A) (A) (A) (A) (A) (A) (A) (A) (A) (A)
                 (A) (A) (A) (A) (A) (A) (A) (A) (A) (A) (A) (A)
                 (A) (A) (A) (A) (A) (A) (A) (A) (A) (A) (A) (A)
                 (A) (A) (A) (A) (A) (A) (A) (A) (A) (A) (A) (A)
                 (A) (A) (A) (A) (A) (A) (A) (A) (A) (A) (A) (A)
                 (A) (A) (A)
 The electronic state of the initial guess is 1-A.
 Requested convergence on RMS density matrix=1.00D-08 within 128 cycles.
 Requested convergence on MAX density matrix=1.00D-06.
 Requested convergence on             energy=1.00D-06.
 No special actions if energy rises.
 Integral accuracy reduced to 1.0D-05 until final iterations.
 Initial convergence to 1.0D-05 achieved.  Increase integral accuracy.
 SCF Done:  E(RHF) =  -982.487675231     A.U. after   15 cycles
             Convg  =    0.4462D-08             -V/T =  2.0024

 **********************************************************************

            Population analysis using the SCF density.

 **********************************************************************

 Orbital symmetries:
 BldTbl:  Degeneracy threshold= 1.00D-02
       Occupied  (A) (A) (A) (A) (A) (A) (A) (A) (A) (A) (A) (A)
                 (A) (A) (A) (A) (A) (A) (A) (A) (A) (A) (A) (A)
                 (A) (A) (A) (A) (A) (A) (A) (A) (A) (A) (A) (A)
                 (A) (A) (A) (A) (A) (A) (A) (A) (A) (A) (A) (A)
       Virtual   (A) (A) (A) (A) (A) (A) (A) (A) (A) (A) (A) (A)
                 (A) (A) (A) (A) (A) (A) (A) (A) (A) (A) (A) (A)
                 (A) (A) (A) (A) (A) (A) (A) (A) (A) (A) (A) (A)
                 (A) (A) (A) (A) (A) (A) (A) (A) (A) (A) (A) (A)
                 (A) (A) (A) (A) (A) (A) (A) (A) (A) (A) (A) (A)
                 (A) (A) (A) (A) (A) (A) (A) (A) (A) (A) (A) (A)
                 (A) (A) (A) (A) (A) (A) (A) (A) (A) (A) (A) (A)
                 (A) (A) (A) (A) (A) (A) (A) (A) (A) (A) (A) (A)
                 (A) (A) (A) (A) (A) (A) (A) (A) (A) (A) (A) (A)
                 (A) (A) (A) (A) (A) (A) (A) (A) (A) (A) (A) (A)
                 (A) (A) (A) (A) (A) (A) (A) (A) (A) (A) (A) (A)
                 (A) (A) (A)
 The electronic state is 1-A.
 Alpha  occ. eigenvalues --  -80.12597 -20.63988 -20.63674 -20.62863 -20.62772
 Alpha  occ. eigenvalues --  -20.56951 -20.56527 -20.48915 -11.41172 -11.33900
 Alpha  occ. eigenvalues --  -11.30180  -7.64835  -5.54682  -5.54658  -5.54530
 Alpha  occ. eigenvalues --   -1.48696  -1.47130  -1.41783  -1.40374  -1.37204
 Alpha  occ. eigenvalues --   -1.35649  -1.26976  -1.07052  -0.91430  -0.86974
 Alpha  occ. eigenvalues --   -0.83536  -0.77829  -0.76613  -0.73069  -0.70709
 Alpha  occ. eigenvalues --   -0.67969  -0.67448  -0.66180  -0.65151  -0.64433
 Alpha  occ. eigenvalues --   -0.62507  -0.60490  -0.58976  -0.56425  -0.55396
 Alpha  occ. eigenvalues --   -0.54070  -0.51616  -0.50649  -0.48746  -0.46609
 Alpha  occ. eigenvalues --   -0.45549  -0.43546  -0.43017
 Alpha virt. eigenvalues --    0.16022   0.16410   0.19429   0.21441   0.22170
 Alpha virt. eigenvalues --    0.26361   0.27692   0.28720   0.32280   0.32761
 Alpha virt. eigenvalues --    0.34741   0.35154   0.37910   0.39641   0.41927
 Alpha virt. eigenvalues --    0.43554   0.48012   0.52304   0.54670   0.58495
 Alpha virt. eigenvalues --    0.60209   0.60662   0.73842   0.75243   0.76521
 Alpha virt. eigenvalues --    0.79413   0.82048   0.83762   0.85121   0.89563
 Alpha virt. eigenvalues --    0.91901   0.95873   0.97911   0.98579   1.00668
 Alpha virt. eigenvalues --    1.03885   1.05423   1.06413   1.10899   1.10945
 Alpha virt. eigenvalues --    1.11640   1.13387   1.16236   1.17350   1.18668
 Alpha virt. eigenvalues --    1.18985   1.20028   1.20884   1.22907   1.23921
 Alpha virt. eigenvalues --    1.27109   1.27958   1.29791   1.31454   1.33412
 Alpha virt. eigenvalues --    1.34474   1.36093   1.38181   1.42905   1.46454
 Alpha virt. eigenvalues --    1.47892   1.51043   1.52466   1.54498   1.57712
 Alpha virt. eigenvalues --    1.59699   1.61135   1.64607   1.66419   1.68165
 Alpha virt. eigenvalues --    1.71166   1.75682   1.79880   1.84230   1.88855
 Alpha virt. eigenvalues --    1.93137   1.95270   1.96378   1.97783   1.98521
 Alpha virt. eigenvalues --    2.00589   2.03267   2.03978   2.05630   2.07380
 Alpha virt. eigenvalues --    2.08540   2.08795   2.14316   2.14915   2.17486
 Alpha virt. eigenvalues --    2.18856   2.21523   2.25952   2.28500   2.30574
 Alpha virt. eigenvalues --    2.37330   2.37809   2.39900   2.42924   2.44582
 Alpha virt. eigenvalues --    2.50772   2.51652   2.58449   2.61205   2.62888
 Alpha virt. eigenvalues --    2.67436   2.68910   2.71200   2.72377   2.77373
 Alpha virt. eigenvalues --    2.83514   2.85022   2.87909   2.94434   2.99528
 Alpha virt. eigenvalues --    3.00679   3.04910   3.10389   3.20932   3.23591
 Alpha virt. eigenvalues --    3.25463   3.27267   3.39121   3.47380   3.85912
 Alpha virt. eigenvalues --    4.05829   4.12335   4.20640   4.25453   4.40646
 Alpha virt. eigenvalues --    4.48603   4.54021   4.73874   4.77128   5.03117
          Condensed to atoms (all electrons):
              1          2          3          4          5          6
     1  C    4.171078   0.317408  -0.058118   0.001724   0.601397   0.275314
     2  C    0.317408   5.137171   0.329639  -0.033776  -0.078258  -0.075613
     3  C   -0.058118   0.329639   4.785395   0.000482  -0.000773   0.005736
     4  P    0.001724  -0.033776   0.000482  11.855246   0.004529   0.000061
     5  O    0.601397  -0.078258  -0.000773   0.004529   8.112931  -0.096112
     6  O    0.275314  -0.075613   0.005736   0.000061  -0.096112   8.371911
     7  O    0.001178  -0.053004   0.234005   0.001274  -0.000013   0.000004
     8  O   -0.034875   0.144986  -0.042995   0.308438  -0.004774   0.000723
     9  O    0.000503  -0.005615  -0.002863   0.614236  -0.000003   0.000000
    10  O   -0.000011   0.000603  -0.000030   0.333197  -0.000003   0.000000
    11  O    0.000649  -0.002242   0.000268   0.290843  -0.000445  -0.000001
    12  H   -0.037628   0.388537  -0.031033  -0.005739   0.000816   0.002861
    13  H    0.000313  -0.044749   0.394237  -0.001178   0.000558   0.000076
    14  H    0.000783  -0.043893   0.394747   0.000628   0.000146   0.001716
    15  H   -0.004588   0.004191  -0.000230  -0.000004   0.005226   0.248330
    16  H   -0.000127   0.006459  -0.022386   0.000115   0.000001   0.000003
    17  H    0.000002  -0.000038   0.000002  -0.002469   0.000000   0.000000
    18  H    0.000663  -0.000815  -0.000010   0.008739   0.000695  -0.000007
              7          8          9         10         11         12
     1  C    0.001178  -0.034875   0.000503  -0.000011   0.000649  -0.037628
     2  C   -0.053004   0.144986  -0.005615   0.000603  -0.002242   0.388537
     3  C    0.234005  -0.042995  -0.002863  -0.000030   0.000268  -0.031033
     4  P    0.001274   0.308438   0.614236   0.333197   0.290843  -0.005739
     5  O   -0.000013  -0.004774  -0.000003  -0.000003  -0.000445   0.000816
     6  O    0.000004   0.000723   0.000000   0.000000  -0.000001   0.002861
     7  O    8.337602   0.004322  -0.001368  -0.000007  -0.000002   0.001646
     8  O    0.004322   8.408815  -0.035919  -0.017121  -0.024229  -0.035073
     9  O   -0.001368  -0.035919   8.225462  -0.041700  -0.032960   0.006886
    10  O   -0.000007  -0.017121  -0.041700   8.269129  -0.027954  -0.000005
    11  O   -0.000002  -0.024229  -0.032960  -0.027954   8.330446   0.000932
    12  H    0.001646  -0.035073   0.006886  -0.000005   0.000932   0.443446
    13  H   -0.037324  -0.001519  -0.000013  -0.000001  -0.000002   0.004471
    14  H   -0.035974   0.002915  -0.000042   0.000000   0.000002  -0.003206
    15  H    0.000001  -0.000049   0.000000   0.000000   0.000000  -0.000194
    16  H    0.257674  -0.000171   0.000152   0.000000   0.000000  -0.000125
    17  H   -0.000001   0.000422  -0.000737   0.257505  -0.000089  -0.000008
    18  H    0.000001   0.000319   0.000799  -0.000073   0.246616  -0.000422
             13         14         15         16         17         18
     1  C    0.000313   0.000783  -0.004588  -0.000127   0.000002   0.000663
     2  C   -0.044749  -0.043893   0.004191   0.006459  -0.000038  -0.000815
     3  C    0.394237   0.394747  -0.000230  -0.022386   0.000002  -0.000010
     4  P   -0.001178   0.000628  -0.000004   0.000115  -0.002469   0.008739
     5  O    0.000558   0.000146   0.005226   0.000001   0.000000   0.000695
     6  O    0.000076   0.001716   0.248330   0.000003   0.000000  -0.000007
     7  O   -0.037324  -0.035974   0.000001   0.257674  -0.000001   0.000001
     8  O   -0.001519   0.002915  -0.000049  -0.000171   0.000422   0.000319
     9  O   -0.000013  -0.000042   0.000000   0.000152  -0.000737   0.000799
    10  O   -0.000001   0.000000   0.000000   0.000000   0.257505  -0.000073
    11  O   -0.000002   0.000002   0.000000   0.000000  -0.000089   0.246616
    12  H    0.004471  -0.003206  -0.000194  -0.000125  -0.000008  -0.000422
    13  H    0.554285  -0.037613  -0.000035  -0.003352   0.000000   0.000001
    14  H   -0.037613   0.545242   0.000048  -0.003546   0.000000   0.000000
    15  H   -0.000035   0.000048   0.256534   0.000000   0.000000   0.000000
    16  H   -0.003352  -0.003546   0.000000   0.324039   0.000000   0.000000
    17  H    0.000000   0.000000   0.000000   0.000000   0.242330  -0.000130
    18  H    0.000001   0.000000   0.000000   0.000000  -0.000130   0.256187
 Mulliken atomic charges:
              1
     1  C    0.764337
     2  C    0.009009
     3  C    0.013928
     4  P    1.623653
     5  O   -0.545920
     6  O   -0.735003
     7  O   -0.710015
     8  O   -0.674218
     9  O   -0.726818
    10  O   -0.773531
    11  O   -0.781832
    12  H    0.263838
    13  H    0.171844
    14  H    0.178045
    15  H    0.490770
    16  H    0.441263
    17  H    0.503212
    18  H    0.487437
 Sum of Mulliken atomic charges =   0.00000
 Mulliken charges with hydrogens summed into heavy atoms:
              1
     1  C    0.764337
     2  C    0.272847
     3  C    0.363816
     4  P    1.623653
     5  O   -0.545920
     6  O   -0.244232
     7  O   -0.268752
     8  O   -0.674218
     9  O   -0.726818
    10  O   -0.270319
    11  O   -0.294395
 Sum of Mulliken charges with hydrogens summed into heavy atoms =   0.00000
 DipInt: DoE/N= T F RetVal/Mat= T F Init=T NMatP=  1 IDeriv=0 Min/MaxMlt=  0  4
 Entering OneElI...
 OneElI was handed    33466032 working-precision words.
 Multipole integrals L=0 to 4 MinM= 0 MaxM= 0.
 Requested accuracy = 0.1000D-12
 PrsmSu:  NPrtUS=   1 ThrOK=F IAlg=1 NPAlg=1 LenDen=           0.
 Prism:   IPart=     0 DynPar=F LinDyn=F Incr=          16.
 PRISM was handed    33309397 working-precision words and  1604 shell-pairs
 IPart=  0 NShTot=        1604 NBatch=          61 AvBLen=        26.3
 PrSmSu:  NxtVal=             17.
 Electronic moments (au):
        -96.00000000          1.30337357         -0.94009960          0.03192719
      -1162.87387206       -605.47247073       -204.23209106          8.89186594
          2.84753321         -5.58005604       -413.93830865       -971.69511122
         -5.37672970       -590.87251629        872.65966908        -52.88782638
        108.08032951        149.54226551          4.01274767         21.66630706
     -27177.22243297     -10741.86016986      -1073.68232001       2150.43209107
      -3017.02614313      -1106.10486415        119.73421786        119.62548061
          3.41860413      -4919.28854206      -2756.82508395      -1148.96803761
       -244.05575702        908.88594830         88.59756113
 Electronic spatial extent (au):  <R**2>=           1972.5784
 DipInt: DoE/N= F T RetVal/Mat= T F Init=T NMatP=  1 IDeriv=0 Min/MaxMlt=  0  4
 Nuclear    moments (au):
         96.00000000          0.00000000          0.00000000          0.00000000
       1124.30494071        559.26035164        146.15079477          0.00000000
          0.00000000          0.00000000        418.85880663        992.10678785
          4.16620411        618.01748716       -917.40806805         57.51070368
        -97.29889884       -142.96559123         -5.63374968        -31.03797591
      24608.35024683       9376.45655877        433.88810122      -2260.95825197
       3064.84907125       1307.03124320       -227.65285409       -105.21059178
        -14.26584775       4152.93256820       1957.65093179        704.65319381
        147.54652269       -853.53366948        -82.73322082
 Total      moments (au):
          0.00000000          1.30337357         -0.94009960          0.03192719
        -38.56893135        -46.21211908        -58.08129629          8.89186594
          2.84753321         -5.58005604          4.92049798         20.41167663
         -1.21052559         27.14497087        -44.74839897          4.62287730
         10.78143067          6.57667427         -1.62100201         -9.37166885
      -2568.87218614      -1365.40361109       -639.79421879       -110.52616090
         47.82292812        200.92637906       -107.91863623         14.41488882
        -10.84724361       -766.35597386       -799.17415217       -444.31484380
        -96.50923433         55.35227882          5.86434031
 Traceless Quadrup. (au):
          9.05185089          1.40866316        -10.46051405          8.89186594
          2.84753321         -5.58005604
 Charge=              0.0000 electrons
 Dipole moment (field-independent basis, Debye):
    X=              3.3128    Y=             -2.3895    Z=              0.0812  Tot=              4.0855
 Quadrupole moment (field-independent basis, Debye-Ang):
   XX=            -51.8765   YY=            -62.1569   ZZ=            -78.1213
   XY=             11.9599   XZ=              3.8300   YZ=             -7.5054
 Traceless Quadrupole moment (field-independent basis, Debye-Ang):
   XX=             12.1750   YY=              1.8947   ZZ=            -14.0697
   XY=             11.9599   XZ=              3.8300   YZ=             -7.5054
 Octapole moment (field-independent basis, Debye-Ang**2):
  XXX=              3.5022  YYY=             14.5282  ZZZ=             -0.8616  XYY=             19.3207
  XXY=            -31.8502  XXZ=              3.2904  XZZ=              7.6738  YZZ=              4.6810
  YYZ=             -1.1538  XYZ=             -6.6704
 Hexadecapole moment (field-independent basis, Debye-Ang**3):
 XXXX=           -967.5604 YYYY=           -514.2764 ZZZZ=           -240.9772 XXXY=            -41.6294
 XXXZ=             18.0124 YYYX=             75.6785 YYYZ=            -40.6473 ZZZX=              5.4293
 ZZZY=             -4.0856 XXYY=           -288.6464 XXZZ=           -301.0073 YYZZ=           -167.3503
 XXYZ=            -36.3500 YYXZ=             20.8483 ZZXY=              2.2088
 N-N= 8.353017318934D+02 E-N=-3.997391364704D+03  KE= 9.801334653891D+02
 Entering OneElI...
 OneElI was handed    33398421 working-precision words.
 Calculate electrostatic properties
    NBasis =   183  MinDer = 0  MaxDer = 0
    NGrid  =    18  NMatD  =   1
 Requested accuracy = 0.1000D-12
 PrsmSu:  NPrtUS=   1 ThrOK=F IAlg=1 NPAlg=1 LenDen=           0.
 Prism:   IPart=     0 DynPar=F LinDyn=F Incr=         271.
 PRISM was handed    33252191 working-precision words and  1507 shell-pairs
 IPart=  0 NShTot=       27126 NBatch=        1507 AvBLen=        18.0
 PrSmSu:  NxtVal=            272.
 --------------------------------------------------------
       Center         ----      EFG at Nuclei      ----
                      3XX-RR        3YY-RR        3ZZ-RR
 --------------------------------------------------------
     1   Atom       -0.020322      0.167178     -0.146855
     2   Atom       -0.201892      0.165992      0.035900
     3   Atom       -0.057087     -0.150079      0.207166
     4   Atom       -0.209894      0.395411     -0.185517
     5   Atom        1.174066     -0.466777     -0.707289
     6   Atom       -1.162644      0.427689      0.734955
     7   Atom       -0.143598     -1.757272      1.900870
     8   Atom       -1.389158      1.401103     -0.011945
     9   Atom        0.405694     -0.586346      0.180652
    10   Atom       -1.474915      1.436189      0.038726
    11   Atom        1.323534     -1.205856     -0.117677
    12   Atom        0.067734      0.158952     -0.226687
    13   Atom        0.098807      0.134973     -0.233779
    14   Atom       -0.098575      0.122055     -0.023480
    15   Atom       -0.100797     -0.113547      0.214344
    16   Atom        0.077188     -0.308424      0.231236
    17   Atom       -0.221708      0.245312     -0.023604
    18   Atom        0.234048     -0.228003     -0.006045
 --------------------------------------------------------
                        XY            XZ            YZ
 --------------------------------------------------------
     1   Atom       -0.278652      0.100915      0.372663
     2   Atom       -0.023998     -0.328543     -0.086542
     3   Atom        0.187925      0.058328     -0.007243
     4   Atom       -0.140788     -0.115651      0.515224
     5   Atom       -0.953439      0.719200     -0.148634
     6   Atom        1.008986     -0.752546      0.033811
     7   Atom        0.440377      0.512132      0.256162
     8   Atom       -0.753643     -0.419485      0.048070
     9   Atom        0.255483      0.129356     -0.600738
    10   Atom       -0.391089      0.168566      0.148490
    11   Atom        0.490948      0.083578     -0.111296
    12   Atom       -0.016831      0.116853      0.006811
    13   Atom        0.002934      0.149720      0.009343
    14   Atom       -0.055434     -0.212169     -0.048573
    15   Atom        0.332341      0.046542     -0.069380
    16   Atom       -0.248796      0.071238      0.119576
    17   Atom       -0.073141      0.303205      0.048973
    18   Atom        0.102135      0.064075     -0.293249
 --------------------------------------------------------


 ---------------------------------------------------------------------------------
              Nuclear Quadrupole in Principal Axis System
 ---------------------------------------------------------------------------------

       Atom             a.u.   MegaHertz   Gauss  10(-4) cm-1        Axes

              Baa    -0.5168   -69.343   -24.743   -23.130 -0.4557 -0.5619  0.6904
     1 C(13)  Bbb     0.0317     4.249     1.516     1.417  0.8098  0.0603  0.5836
              Bcc     0.4851    65.094    23.227    21.713 -0.3695  0.8250  0.4275
 
              Baa    -0.4404   -59.095   -21.087   -19.712  0.8079  0.1145  0.5781
     2 C(13)  Bbb     0.1470    19.728     7.040     6.581 -0.3341  0.8970  0.2893
              Bcc     0.2934    39.367    14.047    13.131 -0.4854 -0.4269  0.7630
 
              Baa    -0.3006   -40.341   -14.395   -13.456 -0.6211  0.7793  0.0825
     3 C(13)  Bbb     0.0772    10.364     3.698     3.457  0.7320  0.6145 -0.2943
              Bcc     0.2234    29.977    10.697     9.999  0.2801  0.1225  0.9521
 
              Baa    -0.4898  -105.888   -37.783   -35.320  0.1134 -0.4863  0.8664
     4 P(31)  Bbb    -0.2410   -52.107   -18.593   -17.381  0.9756  0.2195 -0.0045
              Bcc     0.7308   157.995    56.376    52.701 -0.1880  0.8458  0.4993
 
              Baa    -1.0662    77.149    27.529    25.734 -0.4597 -0.5603  0.6891
     5 O(17)  Bbb    -0.7491    54.206    19.342    18.081  0.1124  0.7329  0.6709
              Bcc     1.8153  -131.355   -46.871   -43.815  0.8809 -0.3859  0.2739
 
              Baa    -1.8403   133.166    47.517    44.419  0.8802 -0.3955  0.2624
     6 O(17)  Bbb     0.6325   -45.764   -16.330   -15.265  0.1247  0.7262  0.6761
              Bcc     1.2079   -87.402   -31.187   -29.154 -0.4579 -0.5624  0.6885
 
              Baa    -1.8737   135.582    48.379    45.225 -0.2371  0.9709 -0.0337
     7 O(17)  Bbb    -0.1810    13.098     4.674     4.369  0.9405  0.2207 -0.2585
              Bcc     2.0547  -148.680   -53.053   -49.594  0.2435  0.0930  0.9654
 
              Baa    -1.6739   121.124    43.220    40.403  0.9456  0.2281  0.2321
     8 O(17)  Bbb     0.0680    -4.924    -1.757    -1.642 -0.2017 -0.1489  0.9681
              Bcc     1.6059  -116.200   -41.463   -38.760 -0.2554  0.9622  0.0948
 
              Baa    -0.9749    70.543    25.171    23.531 -0.2030  0.8593  0.4695
     9 O(17)  Bbb     0.4632   -33.519   -11.961   -11.181  0.9608  0.0824  0.2646
              Bcc     0.5117   -37.023   -13.211   -12.350 -0.1887 -0.5048  0.8424
 
              Baa    -1.5485   112.051    39.983    37.376  0.9839  0.1348 -0.1171
    10 O(17)  Bbb     0.0499    -3.611    -1.289    -1.205  0.1273 -0.0701  0.9894
              Bcc     1.4986  -108.440   -38.694   -36.172 -0.1251  0.9884  0.0861
 
              Baa    -1.3109    94.854    33.846    31.640 -0.1854  0.9771  0.1041
    11 O(17)  Bbb    -0.1071     7.750     2.765     2.585 -0.0204 -0.1098  0.9937
              Bcc     1.4180  -102.603   -36.611   -34.225  0.9825  0.1821  0.0403
 
              Baa    -0.2678  -142.866   -50.978   -47.655 -0.3300 -0.0281  0.9435
    12 H(1)   Bbb     0.1050    56.046    19.999    18.695  0.9131  0.2438  0.3267
              Bcc     0.1627    86.820    30.980    28.960 -0.2392  0.9694 -0.0548
 
              Baa    -0.2914  -155.470   -55.475   -51.859 -0.3581 -0.0180  0.9335
    13 H(1)   Bbb     0.1335    71.221    25.414    23.757 -0.2471  0.9660 -0.0762
              Bcc     0.1579    84.248    30.062    28.102  0.9004  0.2580  0.3503
 
              Baa    -0.2897  -154.560   -55.151   -51.556  0.7539  0.1762  0.6330
    14 H(1)   Bbb     0.1351    72.091    25.724    24.047 -0.1868  0.9811 -0.0506
              Bcc     0.1546    82.469    29.427    27.509 -0.6299 -0.0801  0.7725
 
              Baa    -0.4497  -239.957   -85.623   -80.041 -0.6930  0.7104  0.1228
    15 H(1)   Bbb     0.2096   111.842    39.908    37.306  0.5615  0.4251  0.7099
              Bcc     0.2401   128.115    45.715    42.735 -0.4522 -0.5609  0.6935
 
              Baa    -0.4583  -244.525   -87.252   -81.565  0.4345  0.8788 -0.1973
    16 H(1)   Bbb     0.1972   105.193    37.536    35.089  0.8671 -0.4674 -0.1723
              Bcc     0.2611   139.331    49.717    46.476  0.2437  0.0962  0.9651
 
              Baa    -0.4527  -241.547   -86.190   -80.571  0.8035  0.1250 -0.5820
    17 H(1)   Bbb     0.1961   104.651    37.342    34.908  0.5803  0.0538  0.8126
              Bcc     0.2566   136.896    48.848    45.663 -0.1329  0.9907  0.0293
 
              Baa    -0.4517  -241.021   -86.002   -80.396 -0.1730  0.8112  0.5586
    18 H(1)   Bbb     0.1961   104.607    37.326    34.893  0.0868 -0.5524  0.8290
              Bcc     0.2557   136.414    48.676    45.503  0.9811  0.1919  0.0252
 

 ---------------------------------------------------------------------------------

 No NMR shielding tensors so no spin-rotation constants.
 Leave Link  601 at Wed Sep 16 21:36:28 2015, MaxMem=   33554432 cpu:       0.3
 Merz-Kollman atomic radii used.
 Atom Element Radius
    1     6    1.50
    2     6    1.50
    3     6    1.50
    4    15    1.80
    5     8    1.40
    6     8    1.40
    7     8    1.40
    8     8    1.40
    9     8    1.40
   10     8    1.40
   11     8    1.40
   12     1    1.20
   13     1    1.20
   14     1    1.20
   15     1    1.20
   16     1    1.20
   17     1    1.20
   18     1    1.20
 Generate VDW surfaces: Layer= 4 Dens= 6 Start= 1.400 Inc= 0.200

 **********************************************************************

            Electrostatic Properties Using The SCF Density

 **********************************************************************

       Atomic Center    1 is at   1.919461 -0.807232 -0.078177
       Atomic Center    2 is at   0.860360  0.251598  0.086659
       Atomic Center    3 is at   1.465919  1.626255 -0.202717
       Atomic Center    4 is at  -1.536145 -0.209084  0.062216
       Atomic Center    5 is at   1.771796 -1.686305 -0.892750
       Atomic Center    6 is at   3.026230 -0.773466  0.679351
       Atomic Center    7 is at   0.461155  2.631496 -0.045938
       Atomic Center    8 is at  -0.209707  0.001995 -0.824466
       Atomic Center    9 is at  -1.797192  1.012186  0.855760
       Atomic Center   10 is at  -2.789729 -0.497126 -0.905848
       Atomic Center   11 is at  -1.326499 -1.459014  1.053645
       Atomic Center   12 is at   0.480779  0.229185  1.107849
       Atomic Center   13 is at   1.845500  1.648667 -1.223906
       Atomic Center   14 is at   2.283168  1.818068  0.492398
       Atomic Center   15 is at   3.706105 -1.453248  0.572975
       Atomic Center   16 is at   0.883776  3.479945 -0.237009
       Atomic Center   17 is at  -3.561389 -0.616320 -0.335804
       Atomic Center   18 is at  -1.158641 -2.231884  0.497627
      ESP Fit Center   19 is at   1.509771 -0.807232  1.981473
      ESP Fit Center   20 is at   1.223492 -1.209049  1.861970
      ESP Fit Center   21 is at   1.517643 -1.503200  1.861970
      ESP Fit Center   22 is at   0.927515 -1.421419  1.667910
      ESP Fit Center   23 is at   1.216369 -1.738276  1.667910
      ESP Fit Center   24 is at   1.600179 -1.929391  1.667910
      ESP Fit Center   25 is at   0.670263 -1.610042  1.406748
      ESP Fit Center   26 is at   0.947042 -1.929462  1.406748
      ESP Fit Center   27 is at   1.302601 -2.157966  1.406748
      ESP Fit Center   28 is at   1.708134 -2.277041  1.406748
      ESP Fit Center   29 is at   0.612497 -1.965101  1.088521
      ESP Fit Center   30 is at   0.927571 -2.244232  1.088521
      ESP Fit Center   31 is at   1.300290 -2.439850  1.088521
      ESP Fit Center   32 is at   1.708993 -2.540587  1.088521
      ESP Fit Center   33 is at   2.129928 -2.540587  1.088521
      ESP Fit Center   34 is at   0.510923 -2.141470  0.725459
      ESP Fit Center   35 is at   0.830676 -2.413070  0.725459
      ESP Fit Center   36 is at   2.438505 -2.676660  0.725459
      ESP Fit Center   37 is at   3.463999  0.366895 -0.881812
      ESP Fit Center   38 is at   3.665547 -0.807232 -1.244874
      ESP Fit Center   39 is at   3.614809 -0.389366 -1.244874
      ESP Fit Center   40 is at   3.465543  0.004215 -1.244874
      ESP Fit Center   41 is at   3.226425  0.350638 -1.244874
      ESP Fit Center   42 is at   3.404385 -0.807232 -1.563101
      ESP Fit Center   43 is at   3.344235 -0.388880 -1.563101
      ESP Fit Center   44 is at   3.168659 -0.004421 -1.563101
      ESP Fit Center   45 is at   2.891879  0.314999 -1.563101
      ESP Fit Center   46 is at   3.007374 -0.385772 -1.824263
      ESP Fit Center   47 is at   2.781661 -0.021233 -1.824263
      ESP Fit Center   48 is at   2.321279 -0.111263 -2.018324
      ESP Fit Center   49 is at   1.919461 -0.003596 -2.018324
      ESP Fit Center   50 is at   1.948273  0.673057  1.832745
      ESP Fit Center   51 is at   1.261074  1.981056  1.856932
      ESP Fit Center   52 is at   1.056229  1.626255  1.856932
      ESP Fit Center   53 is at   2.632616  3.372341 -0.202717
      ESP Fit Center   54 is at   3.156404  2.802867 -0.612406
      ESP Fit Center   55 is at   2.884949  3.119073 -0.612406
      ESP Fit Center   56 is at   2.555399  3.374164 -0.612406
      ESP Fit Center   57 is at   3.358650  0.814020 -0.612406
      ESP Fit Center   58 is at   3.483407  1.211650 -0.612406
      ESP Fit Center   59 is at   2.721944  3.104961 -1.006352
      ESP Fit Center   60 is at   2.374700  3.340398 -1.006352
      ESP Fit Center   61 is at   0.319087  1.840635 -1.948803
      ESP Fit Center   62 is at  -1.536145 -0.209084  2.582216
      ESP Fit Center   63 is at  -1.950923 -0.209084  2.547847
      ESP Fit Center   64 is at  -0.717902 -0.209084  2.445676
      ESP Fit Center   65 is at  -0.827526  0.200038  2.445676
      ESP Fit Center   66 is at  -2.354388 -0.209084  2.445676
      ESP Fit Center   67 is at  -2.735532 -0.209084  2.278490
      ESP Fit Center   68 is at  -2.663200 -0.619298  2.278490
      ESP Fit Center   69 is at  -3.069544  0.001677  2.050850
      ESP Fit Center   70 is at  -3.069544 -0.419845  2.050850
      ESP Fit Center   71 is at  -2.955819 -0.825735  2.050850
      ESP Fit Center   72 is at  -3.377633  0.006155  1.768966
      ESP Fit Center   73 is at  -3.377633 -0.424323  1.768966
      ESP Fit Center   74 is at  -3.278358 -0.843197  1.768966
      ESP Fit Center   75 is at  -3.634980  0.004347  1.440525
      ESP Fit Center   76 is at  -3.634980 -0.422514  1.440525
      ESP Fit Center   77 is at  -3.549054 -0.840638  1.440525
      ESP Fit Center   78 is at  -3.380719 -1.232906  1.440525
      ESP Fit Center   79 is at  -3.029502 -2.228236  0.270316
      ESP Fit Center   80 is at  -3.616858  1.197233 -0.145884
      ESP Fit Center   81 is at  -3.106403  1.662278 -0.556407
      ESP Fit Center   82 is at  -3.407506  1.361175 -0.556407
      ESP Fit Center   83 is at  -1.323213  2.088821 -0.950056
      ESP Fit Center   84 is at  -1.749077  2.088821 -0.950056
      ESP Fit Center   85 is at  -2.167690  2.010568 -0.950056
      ESP Fit Center   86 is at  -2.564797  1.856728 -0.950056
      ESP Fit Center   87 is at  -2.926874  1.632540 -0.950056
      ESP Fit Center   88 is at  -2.167690 -2.428736 -0.950056
      ESP Fit Center   89 is at  -1.216684  1.876248 -1.316093
      ESP Fit Center   90 is at  -1.642997  1.897868 -1.316093
      ESP Fit Center   91 is at  -2.064936  1.833229 -1.316093
      ESP Fit Center   92 is at  -2.465227  1.684978 -1.316093
      ESP Fit Center   93 is at  -2.827480  1.459184 -1.316093
      ESP Fit Center   94 is at  -1.642997 -2.316036 -1.316093
      ESP Fit Center   95 is at  -1.216684 -2.294415 -1.316093
      ESP Fit Center   96 is at  -0.803449 -2.187421 -1.316093
      ESP Fit Center   97 is at  -0.420211 -1.999434 -1.316093
      ESP Fit Center   98 is at  -1.214197  1.616774 -1.644533
      ESP Fit Center   99 is at  -1.643947  1.641804 -1.644533
      ESP Fit Center  100 is at  -2.067885  1.567052 -1.644533
      ESP Fit Center  101 is at  -2.463157  1.396548 -1.644533
      ESP Fit Center  102 is at  -1.643947 -2.059971 -1.644533
      ESP Fit Center  103 is at  -1.214197 -2.034941 -1.644533
      ESP Fit Center  104 is at  -0.801803 -1.911479 -1.644533
      ESP Fit Center  105 is at  -1.221232  1.306358 -1.926418
      ESP Fit Center  106 is at  -1.641772  1.335124 -1.926418
      ESP Fit Center  107 is at  -2.054477  1.249363 -1.926418
      ESP Fit Center  108 is at  -1.641772 -1.753291 -1.926418
      ESP Fit Center  109 is at  -1.221232 -1.724526 -1.926418
      ESP Fit Center  110 is at  -0.824049 -1.583367 -1.926418
      ESP Fit Center  111 is at  -1.327873  0.972082 -2.154058
      ESP Fit Center  112 is at  -1.744416  0.972082 -2.154058
      ESP Fit Center  113 is at  -1.327873 -1.390250 -2.154058
      ESP Fit Center  114 is at  -0.936451 -1.247784 -2.154058
      ESP Fit Center  115 is at  -1.536145  0.609159 -2.321243
      ESP Fit Center  116 is at  -1.536145 -1.027326 -2.321243
      ESP Fit Center  117 is at  -1.127024 -0.917703 -2.321243
      ESP Fit Center  118 is at  -1.328756 -0.568292 -2.423414
      ESP Fit Center  119 is at  -1.536145 -0.209084 -2.457784
      ESP Fit Center  120 is at   1.077525 -2.605668  0.692923
      ESP Fit Center  121 is at   1.456520 -2.794385  0.692923
      ESP Fit Center  122 is at   1.878095 -2.833450  0.692923
      ESP Fit Center  123 is at   0.546457 -2.473783  0.418746
      ESP Fit Center  124 is at   0.817950 -2.787103  0.418746
      ESP Fit Center  125 is at   1.166718 -3.011243  0.418746
      ESP Fit Center  126 is at   1.564505 -3.128044  0.418746
      ESP Fit Center  127 is at   1.979087 -3.128044  0.418746
      ESP Fit Center  128 is at   2.376875 -3.011243  0.418746
      ESP Fit Center  129 is at   0.689826 -2.994182  0.087250
      ESP Fit Center  130 is at   1.049074 -3.222168  0.087250
      ESP Fit Center  131 is at   1.453733 -3.353649  0.087250
      ESP Fit Center  132 is at   1.878377 -3.380366  0.087250
      ESP Fit Center  133 is at   2.296325 -3.300638  0.087250
      ESP Fit Center  134 is at   2.681314 -3.119476  0.087250
      ESP Fit Center  135 is at   0.314407 -2.848535 -0.287077
      ESP Fit Center  136 is at   0.609567 -3.143695 -0.287077
      ESP Fit Center  137 is at   0.963006 -3.365775 -0.287077
      ESP Fit Center  138 is at   1.357001 -3.503640 -0.287077
      ESP Fit Center  139 is at   1.771796 -3.550376 -0.287077
      ESP Fit Center  140 is at   2.186591 -3.503640 -0.287077
      ESP Fit Center  141 is at   2.580586 -3.365775 -0.287077
      ESP Fit Center  142 is at   2.934025 -3.143695 -0.287077
      ESP Fit Center  143 is at   3.229185 -2.848535 -0.287077
      ESP Fit Center  144 is at   0.101556 -2.691255 -0.687874
      ESP Fit Center  145 is at   0.356640 -3.026813 -0.687874
      ESP Fit Center  146 is at   0.677895 -3.299689 -0.687874
      ESP Fit Center  147 is at   1.050300 -3.497125 -0.687874
      ESP Fit Center  148 is at   1.456440 -3.609890 -0.687874
      ESP Fit Center  149 is at   1.877327 -3.632710 -0.687874
      ESP Fit Center  150 is at   2.293279 -3.564518 -0.687874
      ESP Fit Center  151 is at   2.684847 -3.408503 -0.687874
      ESP Fit Center  152 is at   3.033722 -3.171960 -0.687874
      ESP Fit Center  153 is at   3.323591 -2.865949 -0.687874
      ESP Fit Center  154 is at   3.721059 -1.686305 -1.097626
      ESP Fit Center  155 is at  -0.075429 -2.308708 -1.097626
      ESP Fit Center  156 is at   0.101556 -2.691255 -1.097626
      ESP Fit Center  157 is at   0.356640 -3.026813 -1.097626
      ESP Fit Center  158 is at   0.677895 -3.299689 -1.097626
      ESP Fit Center  159 is at   1.050300 -3.497125 -1.097626
      ESP Fit Center  160 is at   1.456440 -3.609890 -1.097626
      ESP Fit Center  161 is at   1.877327 -3.632710 -1.097626
      ESP Fit Center  162 is at   2.293279 -3.564518 -1.097626
      ESP Fit Center  163 is at   2.684847 -3.408503 -1.097626
      ESP Fit Center  164 is at   3.033722 -3.171960 -1.097626
      ESP Fit Center  165 is at   3.323591 -2.865949 -1.097626
      ESP Fit Center  166 is at   3.540899 -2.504780 -1.097626
      ESP Fit Center  167 is at   3.675486 -2.105339 -1.097626
      ESP Fit Center  168 is at   3.635867 -1.686305 -1.498423
      ESP Fit Center  169 is at   3.589131 -1.271511 -1.498423
      ESP Fit Center  170 is at  -0.045538 -2.101100 -1.498423
      ESP Fit Center  171 is at   0.092326 -2.495095 -1.498423
      ESP Fit Center  172 is at   0.314407 -2.848535 -1.498423
      ESP Fit Center  173 is at   0.609567 -3.143695 -1.498423
      ESP Fit Center  174 is at   0.963006 -3.365775 -1.498423
      ESP Fit Center  175 is at   1.357001 -3.503640 -1.498423
      ESP Fit Center  176 is at   1.771796 -3.550376 -1.498423
      ESP Fit Center  177 is at   2.186591 -3.503640 -1.498423
      ESP Fit Center  178 is at   2.580586 -3.365775 -1.498423
      ESP Fit Center  179 is at   2.934025 -3.143695 -1.498423
      ESP Fit Center  180 is at   3.229185 -2.848535 -1.498423
      ESP Fit Center  181 is at   3.451266 -2.495095 -1.498423
      ESP Fit Center  182 is at   3.589131 -2.101100 -1.498423
      ESP Fit Center  183 is at   3.469206 -1.686305 -1.872750
      ESP Fit Center  184 is at   3.415879 -1.264177 -1.872750
      ESP Fit Center  185 is at   3.259248 -0.868572 -1.872750
      ESP Fit Center  186 is at   3.009155 -0.524349 -1.872750
      ESP Fit Center  187 is at   0.087771 -1.899047 -1.872750
      ESP Fit Center  188 is at   0.193584 -2.311164 -1.872750
      ESP Fit Center  189 is at   0.398563 -2.684018 -1.872750
      ESP Fit Center  190 is at   0.689826 -2.994182 -1.872750
      ESP Fit Center  191 is at   1.049074 -3.222168 -1.872750
      ESP Fit Center  192 is at   1.453733 -3.353649 -1.872750
      ESP Fit Center  193 is at   1.878377 -3.380366 -1.872750
      ESP Fit Center  194 is at   2.296325 -3.300638 -1.872750
      ESP Fit Center  195 is at   2.681314 -3.119476 -1.872750
      ESP Fit Center  196 is at   3.009155 -2.848262 -1.872750
      ESP Fit Center  197 is at   3.259248 -2.504039 -1.872750
      ESP Fit Center  198 is at   3.415879 -2.108434 -1.872750
      ESP Fit Center  199 is at   3.228360 -1.686305 -2.204246
      ESP Fit Center  200 is at   3.169359 -1.275944 -2.204246
      ESP Fit Center  201 is at   2.997136 -0.898828 -2.204246
      ESP Fit Center  202 is at   2.725643 -0.585508 -2.204246
      ESP Fit Center  203 is at   2.376875 -0.361368 -2.204246
      ESP Fit Center  204 is at   1.979087 -0.244567 -2.204246
      ESP Fit Center  205 is at   1.564505 -0.244567 -2.204246
      ESP Fit Center  206 is at   1.166718 -0.361368 -2.204246
      ESP Fit Center  207 is at   0.374233 -1.275944 -2.204246
      ESP Fit Center  208 is at   0.315232 -1.686305 -2.204246
      ESP Fit Center  209 is at   0.374233 -2.096667 -2.204246
      ESP Fit Center  210 is at   0.546457 -2.473783 -2.204246
      ESP Fit Center  211 is at   0.817950 -2.787103 -2.204246
      ESP Fit Center  212 is at   1.166718 -3.011243 -2.204246
      ESP Fit Center  213 is at   1.564505 -3.128044 -2.204246
      ESP Fit Center  214 is at   1.979087 -3.128044 -2.204246
      ESP Fit Center  215 is at   2.376875 -3.011243 -2.204246
      ESP Fit Center  216 is at   2.725643 -2.787103 -2.204246
      ESP Fit Center  217 is at   2.997136 -2.473783 -2.204246
      ESP Fit Center  218 is at   3.169359 -2.096667 -2.204246
      ESP Fit Center  219 is at   2.923855 -1.686305 -2.478423
      ESP Fit Center  220 is at   2.846059 -1.270134 -2.478423
      ESP Fit Center  221 is at   2.623178 -0.910168 -2.478423
      ESP Fit Center  222 is at   2.285313 -0.655024 -2.478423
      ESP Fit Center  223 is at   1.878095 -0.539161 -2.478423
      ESP Fit Center  224 is at   1.456520 -0.578225 -2.478423
      ESP Fit Center  225 is at   1.077525 -0.766942 -2.478423
      ESP Fit Center  226 is at   0.792296 -1.079825 -2.478423
      ESP Fit Center  227 is at   0.639353 -1.474615 -2.478423
      ESP Fit Center  228 is at   0.639353 -1.897996 -2.478423
      ESP Fit Center  229 is at   0.792296 -2.292786 -2.478423
      ESP Fit Center  230 is at   1.077525 -2.605668 -2.478423
      ESP Fit Center  231 is at   1.456520 -2.794385 -2.478423
      ESP Fit Center  232 is at   1.878095 -2.833450 -2.478423
      ESP Fit Center  233 is at   2.285313 -2.717586 -2.478423
      ESP Fit Center  234 is at   2.623178 -2.462443 -2.478423
      ESP Fit Center  235 is at   2.846059 -2.102477 -2.478423
      ESP Fit Center  236 is at   2.569000 -1.686305 -2.683299
      ESP Fit Center  237 is at   2.462195 -1.287704 -2.683299
      ESP Fit Center  238 is at   2.170398 -0.995907 -2.683299
      ESP Fit Center  239 is at   1.771796 -0.889102 -2.683299
      ESP Fit Center  240 is at   1.373194 -0.995907 -2.683299
      ESP Fit Center  241 is at   1.081397 -1.287704 -2.683299
      ESP Fit Center  242 is at   0.974592 -1.686305 -2.683299
      ESP Fit Center  243 is at   1.081397 -2.084907 -2.683299
      ESP Fit Center  244 is at   1.373194 -2.376704 -2.683299
      ESP Fit Center  245 is at   1.771796 -2.483509 -2.683299
      ESP Fit Center  246 is at   2.170398 -2.376704 -2.683299
      ESP Fit Center  247 is at   2.462195 -2.084907 -2.683299
      ESP Fit Center  248 is at   2.179303 -1.686305 -2.809919
      ESP Fit Center  249 is at   1.975550 -1.333394 -2.809919
      ESP Fit Center  250 is at   1.568043 -1.333394 -2.809919
      ESP Fit Center  251 is at   1.364289 -1.686305 -2.809919
      ESP Fit Center  252 is at   1.568043 -2.039217 -2.809919
      ESP Fit Center  253 is at   1.975550 -2.039217 -2.809919
      ESP Fit Center  254 is at   1.771796 -1.686305 -2.852750
      ESP Fit Center  255 is at   3.026230 -0.773466  2.639351
      ESP Fit Center  256 is at   3.433736 -0.773466  2.596520
      ESP Fit Center  257 is at   3.229983 -0.420555  2.596520
      ESP Fit Center  258 is at   2.822476 -0.420555  2.596520
      ESP Fit Center  259 is at   2.618723 -0.773466  2.596520
      ESP Fit Center  260 is at   2.822476 -1.126377  2.596520
      ESP Fit Center  261 is at   3.229983 -1.126377  2.596520
      ESP Fit Center  262 is at   3.823433 -0.773466  2.469900
      ESP Fit Center  263 is at   3.716628 -0.374864  2.469900
      ESP Fit Center  264 is at   3.424831 -0.083067  2.469900
      ESP Fit Center  265 is at   3.026230  0.023738  2.469900
      ESP Fit Center  266 is at   2.627628 -0.083067  2.469900
      ESP Fit Center  267 is at   2.335831 -0.374864  2.469900
      ESP Fit Center  268 is at   2.229026 -0.773466  2.469900
      ESP Fit Center  269 is at   2.335831 -1.172068  2.469900
      ESP Fit Center  270 is at   2.627628 -1.463865  2.469900
      ESP Fit Center  271 is at   3.026230 -1.570670  2.469900
      ESP Fit Center  272 is at   3.424831 -1.463865  2.469900
      ESP Fit Center  273 is at   3.716628 -1.172068  2.469900
      ESP Fit Center  274 is at   4.178289 -0.773466  2.265024
      ESP Fit Center  275 is at   4.100493 -0.357294  2.265024
      ESP Fit Center  276 is at   3.877611  0.002671  2.265024
      ESP Fit Center  277 is at   3.539746  0.257815  2.265024
      ESP Fit Center  278 is at   3.132528  0.373678  2.265024
      ESP Fit Center  279 is at   2.710954  0.334614  2.265024
      ESP Fit Center  280 is at   2.331959  0.145897  2.265024
      ESP Fit Center  281 is at   2.046729 -0.166985  2.265024
      ESP Fit Center  282 is at   1.893786 -0.561776  2.265024
      ESP Fit Center  283 is at   1.893786 -0.985156  2.265024
      ESP Fit Center  284 is at   2.046729 -1.379947  2.265024
      ESP Fit Center  285 is at   2.331959 -1.692829  2.265024
      ESP Fit Center  286 is at   2.710954 -1.881546  2.265024
      ESP Fit Center  287 is at   3.132528 -1.920611  2.265024
      ESP Fit Center  288 is at   3.539746 -1.804747  2.265024
      ESP Fit Center  289 is at   3.877611 -1.549603  2.265024
      ESP Fit Center  290 is at   4.100493 -1.189638  2.265024
      ESP Fit Center  291 is at   4.482793 -0.773466  1.990847
      ESP Fit Center  292 is at   4.423792 -0.363105  1.990847
      ESP Fit Center  293 is at   4.251569  0.014012  1.990847
      ESP Fit Center  294 is at   3.980076  0.327331  1.990847
      ESP Fit Center  295 is at   3.631308  0.551471  1.990847
      ESP Fit Center  296 is at   3.233520  0.668272  1.990847
      ESP Fit Center  297 is at   2.818939  0.668272  1.990847
      ESP Fit Center  298 is at   2.421151  0.551471  1.990847
      ESP Fit Center  299 is at   2.072383  0.327331  1.990847
      ESP Fit Center  300 is at   1.628667 -1.183828  1.990847
      ESP Fit Center  301 is at   1.800890 -1.560944  1.990847
      ESP Fit Center  302 is at   2.072383 -1.874264  1.990847
      ESP Fit Center  303 is at   2.421151 -2.098403  1.990847
      ESP Fit Center  304 is at   2.818939 -2.215204  1.990847
      ESP Fit Center  305 is at   4.670312 -0.351338  1.659351
      ESP Fit Center  306 is at   4.513681  0.044267  1.659351
      ESP Fit Center  307 is at   4.263588  0.388491  1.659351
      ESP Fit Center  308 is at   3.935747  0.659704  1.659351
      ESP Fit Center  309 is at   3.550758  0.840866  1.659351
      ESP Fit Center  310 is at   3.132811  0.920594  1.659351
      ESP Fit Center  311 is at   1.944260 -2.081343  1.659351
      ESP Fit Center  312 is at   2.303508 -2.309328  1.659351
      ESP Fit Center  313 is at   2.708167 -2.440810  1.659351
      ESP Fit Center  314 is at   4.843564 -0.358671  1.285024
      ESP Fit Center  315 is at   4.705699  0.035324  1.285024
      ESP Fit Center  316 is at   4.483619  0.388763  1.285024
      ESP Fit Center  317 is at   4.188459  0.683923  1.285024
      ESP Fit Center  318 is at   3.835020  0.906004  1.285024
      ESP Fit Center  319 is at   2.217440 -2.452936  1.285024
      ESP Fit Center  320 is at   2.611435 -2.590801  1.285024
      ESP Fit Center  321 is at   4.795333  0.045008  0.884227
      ESP Fit Center  322 is at   4.578024  0.406178  0.884227
      ESP Fit Center  323 is at   4.288156  0.712188  0.884227
      ESP Fit Center  324 is at   3.939281  0.948731  0.884227
      ESP Fit Center  325 is at   4.795333  0.045008  0.474475
      ESP Fit Center  326 is at   4.578024  0.406178  0.474475
      ESP Fit Center  327 is at   4.288156  0.712188  0.474475
      ESP Fit Center  328 is at   3.939281  0.948731  0.474475
      ESP Fit Center  329 is at   4.705699  0.035324  0.073678
      ESP Fit Center  330 is at   4.483619  0.388763  0.073678
      ESP Fit Center  331 is at   4.188459  0.683923  0.073678
      ESP Fit Center  332 is at   3.835020  0.906004  0.073678
      ESP Fit Center  333 is at   4.670312 -0.351338 -0.300649
      ESP Fit Center  334 is at   4.513681  0.044267 -0.300649
      ESP Fit Center  335 is at   4.263588  0.388491 -0.300649
      ESP Fit Center  336 is at   3.935747  0.659704 -0.300649
      ESP Fit Center  337 is at   3.550758  0.840866 -0.300649
      ESP Fit Center  338 is at   4.423792 -0.363105 -0.632145
      ESP Fit Center  339 is at   4.251569  0.014012 -0.632145
      ESP Fit Center  340 is at   3.980076  0.327331 -0.632145
      ESP Fit Center  341 is at   3.631308  0.551471 -0.632145
      ESP Fit Center  342 is at   4.178289 -0.773466 -0.906322
      ESP Fit Center  343 is at   4.100493 -0.357294 -0.906322
      ESP Fit Center  344 is at   3.877611  0.002671 -0.906322
      ESP Fit Center  345 is at   3.539746  0.257815 -0.906322
      ESP Fit Center  346 is at   3.823433 -0.773466 -1.111198
      ESP Fit Center  347 is at   3.716628 -0.374864 -1.111198
      ESP Fit Center  348 is at   3.716628 -1.172068 -1.111198
      ESP Fit Center  349 is at   0.461155  2.631496  1.914062
      ESP Fit Center  350 is at   0.868662  2.631496  1.871231
      ESP Fit Center  351 is at   0.664908  2.984408  1.871231
      ESP Fit Center  352 is at   0.257401  2.984408  1.871231
      ESP Fit Center  353 is at   0.053648  2.631496  1.871231
      ESP Fit Center  354 is at   0.257401  2.278585  1.871231
      ESP Fit Center  355 is at   0.664908  2.278585  1.871231
      ESP Fit Center  356 is at   1.258359  2.631496  1.744611
      ESP Fit Center  357 is at   1.151554  3.030098  1.744611
      ESP Fit Center  358 is at   0.859757  3.321895  1.744611
      ESP Fit Center  359 is at   0.461155  3.428700  1.744611
      ESP Fit Center  360 is at   0.062553  3.321895  1.744611
      ESP Fit Center  361 is at  -0.229244  3.030098  1.744611
      ESP Fit Center  362 is at  -0.336049  2.631496  1.744611
      ESP Fit Center  363 is at  -0.229244  2.232894  1.744611
      ESP Fit Center  364 is at   0.062553  1.941097  1.744611
      ESP Fit Center  365 is at   0.461155  1.834292  1.744611
      ESP Fit Center  366 is at   1.535418  3.047668  1.539735
      ESP Fit Center  367 is at   1.312537  3.407633  1.539735
      ESP Fit Center  368 is at   0.974672  3.662777  1.539735
      ESP Fit Center  369 is at   0.567453  3.778641  1.539735
      ESP Fit Center  370 is at   0.145879  3.739576  1.539735
      ESP Fit Center  371 is at  -0.233116  3.550859  1.539735
      ESP Fit Center  372 is at  -0.518346  3.237977  1.539735
      ESP Fit Center  373 is at  -0.671288  2.843186  1.539735
      ESP Fit Center  374 is at   1.686494  3.418974  1.265558
      ESP Fit Center  375 is at   0.253864  4.073234  1.265558
      ESP Fit Center  376 is at  -0.143924  3.956433  1.265558
      ESP Fit Center  377 is at  -0.492692  3.732294  1.265558
      ESP Fit Center  378 is at  -0.764185  3.418974  1.265558
      ESP Fit Center  379 is at  -0.936408  3.041858  1.265558
      ESP Fit Center  380 is at  -0.261567  4.167358  0.934062
      ESP Fit Center  381 is at  -0.620815  3.939373  0.934062
      ESP Fit Center  382 is at  -0.912078  3.629209  0.934062
      ESP Fit Center  383 is at  -1.117057  3.256354  0.934062
      ESP Fit Center  384 is at  -0.347635  4.310966  0.559735
      ESP Fit Center  385 is at  -0.701074  4.088885  0.559735
      ESP Fit Center  386 is at  -0.996234  3.793725  0.559735
      ESP Fit Center  387 is at  -1.218315  3.440286  0.559735
      ESP Fit Center  388 is at  -1.356180  3.046291  0.559735
      ESP Fit Center  389 is at  -0.632746  4.244880  0.158938
      ESP Fit Center  390 is at  -0.954001  3.972003  0.158938
      ESP Fit Center  391 is at  -1.209085  3.636446  0.158938
      ESP Fit Center  392 is at  -1.386070  3.253899  0.158938
      ESP Fit Center  393 is at  -1.476681  2.842249  0.158938
      ESP Fit Center  394 is at  -0.632746  4.244880 -0.250814
      ESP Fit Center  395 is at  -0.954001  3.972003 -0.250814
      ESP Fit Center  396 is at  -1.209085  3.636446 -0.250814
      ESP Fit Center  397 is at  -1.386070  3.253899 -0.250814
      ESP Fit Center  398 is at  -1.476681  2.842249 -0.250814
      ESP Fit Center  399 is at  -0.701074  4.088885 -0.651612
      ESP Fit Center  400 is at  -0.996234  3.793725 -0.651612
      ESP Fit Center  401 is at  -1.218315  3.440286 -0.651612
      ESP Fit Center  402 is at  -1.356180  3.046291 -0.651612
      ESP Fit Center  403 is at  -1.402916  2.631496 -0.651612
      ESP Fit Center  404 is at  -1.356180  2.216701 -0.651612
      ESP Fit Center  405 is at  -0.620815  3.939373 -1.025938
      ESP Fit Center  406 is at  -0.912078  3.629209 -1.025938
      ESP Fit Center  407 is at  -1.117057  3.256354 -1.025938
      ESP Fit Center  408 is at  -1.222870  2.844238 -1.025938
      ESP Fit Center  409 is at  -1.222870  2.418754 -1.025938
      ESP Fit Center  410 is at  -0.492692  3.732294 -1.357434
      ESP Fit Center  411 is at  -0.764185  3.418974 -1.357434
      ESP Fit Center  412 is at  -0.936408  3.041858 -1.357434
      ESP Fit Center  413 is at  -0.995409  2.631496 -1.357434
      ESP Fit Center  414 is at  -0.936408  2.221135 -1.357434
      ESP Fit Center  415 is at  -0.764185  1.844018 -1.357434
      ESP Fit Center  416 is at  -0.233116  3.550859 -1.631612
      ESP Fit Center  417 is at  -0.518346  3.237977 -1.631612
      ESP Fit Center  418 is at  -0.671288  2.843186 -1.631612
      ESP Fit Center  419 is at  -0.671288  2.419806 -1.631612
      ESP Fit Center  420 is at  -0.518346  2.025015 -1.631612
      ESP Fit Center  421 is at   0.062553  3.321895 -1.836487
      ESP Fit Center  422 is at  -0.229244  3.030098 -1.836487
      ESP Fit Center  423 is at  -0.336049  2.631496 -1.836487
      ESP Fit Center  424 is at  -0.229244  2.232894 -1.836487
      ESP Fit Center  425 is at   0.062553  1.941097 -1.836487
      ESP Fit Center  426 is at   0.664908  2.984408 -1.963108
      ESP Fit Center  427 is at   0.257401  2.984408 -1.963108
      ESP Fit Center  428 is at   0.053648  2.631496 -1.963108
      ESP Fit Center  429 is at   0.257401  2.278585 -1.963108
      ESP Fit Center  430 is at   0.461155  2.631496 -2.005938
      ESP Fit Center  431 is at  -0.209707 -1.862076 -1.430139
      ESP Fit Center  432 is at  -0.103125  1.696055 -1.804466
      ESP Fit Center  433 is at  -0.527770  1.669339 -1.804466
      ESP Fit Center  434 is at  -0.932429  1.537857 -1.804466
      ESP Fit Center  435 is at  -0.527770 -1.665349 -1.804466
      ESP Fit Center  436 is at  -0.103125 -1.692065 -1.804466
      ESP Fit Center  437 is at   1.246857  0.001995 -2.135962
      ESP Fit Center  438 is at   0.395372  1.326932 -2.135962
      ESP Fit Center  439 is at  -0.002416  1.443733 -2.135962
      ESP Fit Center  440 is at  -0.416997  1.443733 -2.135962
      ESP Fit Center  441 is at  -0.814785  1.326932 -2.135962
      ESP Fit Center  442 is at  -1.163553  1.102792 -2.135962
      ESP Fit Center  443 is at  -0.814785 -1.322942 -2.135962
      ESP Fit Center  444 is at  -0.416997 -1.439743 -2.135962
      ESP Fit Center  445 is at  -0.002416 -1.439743 -2.135962
      ESP Fit Center  446 is at   0.942352  0.001995 -2.410139
      ESP Fit Center  447 is at   0.864556  0.418167 -2.410139
      ESP Fit Center  448 is at   0.641675  0.778132 -2.410139
      ESP Fit Center  449 is at   0.303810  1.033276 -2.410139
      ESP Fit Center  450 is at  -0.103408  1.149139 -2.410139
      ESP Fit Center  451 is at  -0.524983  1.110075 -2.410139
      ESP Fit Center  452 is at  -0.903977  0.921358 -2.410139
      ESP Fit Center  453 is at  -1.189207  0.608476 -2.410139
      ESP Fit Center  454 is at  -1.189207 -0.604486 -2.410139
      ESP Fit Center  455 is at  -0.903977 -0.917368 -2.410139
      ESP Fit Center  456 is at  -0.524983 -1.106085 -2.410139
      ESP Fit Center  457 is at  -0.103408 -1.145150 -2.410139
      ESP Fit Center  458 is at   0.303810 -1.029286 -2.410139
      ESP Fit Center  459 is at   0.641675 -0.774142 -2.410139
      ESP Fit Center  460 is at   0.864556 -0.414177 -2.410139
      ESP Fit Center  461 is at   0.587497  0.001995 -2.615015
      ESP Fit Center  462 is at   0.480692  0.400597 -2.615015
      ESP Fit Center  463 is at   0.188895  0.692394 -2.615015
      ESP Fit Center  464 is at  -0.209707  0.799199 -2.615015
      ESP Fit Center  465 is at  -0.608309  0.692394 -2.615015
      ESP Fit Center  466 is at  -0.900105  0.400597 -2.615015
      ESP Fit Center  467 is at  -1.006910  0.001995 -2.615015
      ESP Fit Center  468 is at  -0.900105 -0.396607 -2.615015
      ESP Fit Center  469 is at  -0.608309 -0.688404 -2.615015
      ESP Fit Center  470 is at  -0.209707 -0.795209 -2.615015
      ESP Fit Center  471 is at   0.188895 -0.688404 -2.615015
      ESP Fit Center  472 is at   0.480692 -0.396607 -2.615015
      ESP Fit Center  473 is at   0.197800  0.001995 -2.741635
      ESP Fit Center  474 is at  -0.005953  0.354906 -2.741635
      ESP Fit Center  475 is at  -0.413460  0.354906 -2.741635
      ESP Fit Center  476 is at  -0.617214  0.001995 -2.741635
      ESP Fit Center  477 is at  -0.413460 -0.350916 -2.741635
      ESP Fit Center  478 is at  -0.005953 -0.350916 -2.741635
      ESP Fit Center  479 is at  -0.209707  0.001995 -2.784466
      ESP Fit Center  480 is at  -1.797192  1.012186  2.815760
      ESP Fit Center  481 is at  -1.389685  1.012186  2.772930
      ESP Fit Center  482 is at  -1.593439  1.365097  2.772930
      ESP Fit Center  483 is at  -2.000946  1.365097  2.772930
      ESP Fit Center  484 is at  -2.204699  1.012186  2.772930
      ESP Fit Center  485 is at  -2.000946  0.659275  2.772930
      ESP Fit Center  486 is at  -1.593439  0.659275  2.772930
      ESP Fit Center  487 is at  -0.999989  1.012186  2.646309
      ESP Fit Center  488 is at  -1.106794  1.410788  2.646309
      ESP Fit Center  489 is at  -1.398590  1.702585  2.646309
      ESP Fit Center  490 is at  -1.797192  1.809390  2.646309
      ESP Fit Center  491 is at  -2.195794  1.702585  2.646309
      ESP Fit Center  492 is at  -2.487591  1.410788  2.646309
      ESP Fit Center  493 is at  -2.594396  1.012186  2.646309
      ESP Fit Center  494 is at  -2.487591  0.613584  2.646309
      ESP Fit Center  495 is at  -2.195794  0.321787  2.646309
      ESP Fit Center  496 is at  -1.797192  0.214982  2.646309
      ESP Fit Center  497 is at  -1.398590  0.321787  2.646309
      ESP Fit Center  498 is at  -1.106794  0.613584  2.646309
      ESP Fit Center  499 is at  -0.645133  1.012186  2.441434
      ESP Fit Center  500 is at  -0.722929  1.428358  2.441434
      ESP Fit Center  501 is at  -0.945810  1.788323  2.441434
      ESP Fit Center  502 is at  -1.283675  2.043467  2.441434
      ESP Fit Center  503 is at  -1.690894  2.159331  2.441434
      ESP Fit Center  504 is at  -2.112468  2.120266  2.441434
      ESP Fit Center  505 is at  -2.491463  1.931549  2.441434
      ESP Fit Center  506 is at  -2.776693  1.618667  2.441434
      ESP Fit Center  507 is at  -2.929635  1.223876  2.441434
      ESP Fit Center  508 is at  -2.929635  0.800496  2.441434
      ESP Fit Center  509 is at  -2.776693  0.405705  2.441434
      ESP Fit Center  510 is at  -2.491463  0.092823  2.441434
      ESP Fit Center  511 is at  -0.722929  0.596014  2.441434
      ESP Fit Center  512 is at  -0.399630  1.422547  2.167256
      ESP Fit Center  513 is at  -0.571853  1.799664  2.167256
      ESP Fit Center  514 is at  -0.843346  2.112984  2.167256
      ESP Fit Center  515 is at  -1.192114  2.337123  2.167256
      ESP Fit Center  516 is at  -1.589902  2.453924  2.167256
      ESP Fit Center  517 is at  -2.004483  2.453924  2.167256
      ESP Fit Center  518 is at  -2.402271  2.337123  2.167256
      ESP Fit Center  519 is at  -2.751039  2.112984  2.167256
      ESP Fit Center  520 is at  -3.022532  1.799664  2.167256
      ESP Fit Center  521 is at  -3.194755  1.422547  2.167256
      ESP Fit Center  522 is at  -3.253756  1.012186  2.167256
      ESP Fit Center  523 is at  -3.194755  0.601825  2.167256
      ESP Fit Center  524 is at  -3.022532  0.224708  2.167256
      ESP Fit Center  525 is at  -0.309741  1.829919  1.835760
      ESP Fit Center  526 is at  -0.559834  2.174143  1.835760
      ESP Fit Center  527 is at  -0.887675  2.445356  1.835760
      ESP Fit Center  528 is at  -1.272664  2.626519  1.835760
      ESP Fit Center  529 is at  -1.690611  2.706246  1.835760
      ESP Fit Center  530 is at  -2.115255  2.679530  1.835760
      ESP Fit Center  531 is at  -2.519914  2.548048  1.835760
      ESP Fit Center  532 is at  -2.879162  2.320063  1.835760
      ESP Fit Center  533 is at  -3.170426  2.009898  1.835760
      ESP Fit Center  534 is at  -3.375404  1.637044  1.835760
      ESP Fit Center  535 is at  -3.481218  1.224928  1.835760
      ESP Fit Center  536 is at  -3.481218  0.799444  1.835760
      ESP Fit Center  537 is at  -3.375404  0.387328  1.835760
      ESP Fit Center  538 is at  -0.988402  2.691656  1.461434
      ESP Fit Center  539 is at  -1.382398  2.829521  1.461434
      ESP Fit Center  540 is at  -1.797192  2.876257  1.461434
      ESP Fit Center  541 is at  -2.211987  2.829521  1.461434
      ESP Fit Center  542 is at  -2.605982  2.691656  1.461434
      ESP Fit Center  543 is at  -2.959422  2.469575  1.461434
      ESP Fit Center  544 is at  -3.254582  2.174415  1.461434
      ESP Fit Center  545 is at  -3.476662  1.820976  1.461434
      ESP Fit Center  546 is at  -3.614527  1.426981  1.461434
      ESP Fit Center  547 is at  -3.661263  1.012186  1.461434
      ESP Fit Center  548 is at  -3.614527  0.597391  1.461434
      ESP Fit Center  549 is at  -1.275709  2.890398  1.060636
      ESP Fit Center  550 is at  -1.691661  2.958590  1.060636
      ESP Fit Center  551 is at  -2.112548  2.935770  1.060636
      ESP Fit Center  552 is at  -2.518689  2.823006  1.060636
      ESP Fit Center  553 is at  -2.891094  2.625569  1.060636
      ESP Fit Center  554 is at  -3.212348  2.352693  1.060636
      ESP Fit Center  555 is at  -3.467432  2.017136  1.060636
      ESP Fit Center  556 is at  -3.644418  1.634589  1.060636
      ESP Fit Center  557 is at  -3.735029  1.222938  1.060636
      ESP Fit Center  558 is at  -3.735029  0.801434  1.060636
      ESP Fit Center  559 is at  -1.691661  2.958590  0.650884
      ESP Fit Center  560 is at  -2.112548  2.935770  0.650884
      ESP Fit Center  561 is at  -2.518689  2.823006  0.650884
      ESP Fit Center  562 is at  -2.891094  2.625569  0.650884
      ESP Fit Center  563 is at  -3.212348  2.352693  0.650884
      ESP Fit Center  564 is at  -3.467432  2.017136  0.650884
      ESP Fit Center  565 is at  -3.644418  1.634589  0.650884
      ESP Fit Center  566 is at  -3.735029  1.222938  0.650884
      ESP Fit Center  567 is at  -1.797192  2.876257  0.250087
      ESP Fit Center  568 is at  -2.211987  2.829521  0.250087
      ESP Fit Center  569 is at  -2.605982  2.691656  0.250087
      ESP Fit Center  570 is at  -2.959422  2.469575  0.250087
      ESP Fit Center  571 is at  -3.254582  2.174415  0.250087
      ESP Fit Center  572 is at  -3.476662  1.820976  0.250087
      ESP Fit Center  573 is at  -3.614527  1.426981  0.250087
      ESP Fit Center  574 is at  -1.690611  2.706246 -0.124240
      ESP Fit Center  575 is at  -2.115255  2.679530 -0.124240
      ESP Fit Center  576 is at  -2.519914  2.548048 -0.124240
      ESP Fit Center  577 is at  -2.879162  2.320063 -0.124240
      ESP Fit Center  578 is at  -3.170426  2.009898 -0.124240
      ESP Fit Center  579 is at  -3.375404  1.637044 -0.124240
      ESP Fit Center  580 is at  -1.589902  2.453924 -0.455736
      ESP Fit Center  581 is at  -2.004483  2.453924 -0.455736
      ESP Fit Center  582 is at  -2.402271  2.337123 -0.455736
      ESP Fit Center  583 is at  -2.751039  2.112984 -0.455736
      ESP Fit Center  584 is at  -3.022532  1.799664 -0.455736
      ESP Fit Center  585 is at  -2.112468  2.120266 -0.729913
      ESP Fit Center  586 is at  -3.204523 -2.314461 -0.300174
      ESP Fit Center  587 is at  -3.511225  1.313694 -0.700972
      ESP Fit Center  588 is at  -3.883630  1.116257 -0.700972
      ESP Fit Center  589 is at  -3.511225 -2.307946 -0.700972
      ESP Fit Center  590 is at  -3.105084 -2.420711 -0.700972
      ESP Fit Center  591 is at  -2.684198 -2.443530 -0.700972
      ESP Fit Center  592 is at  -3.105084  1.426458 -1.110723
      ESP Fit Center  593 is at  -3.511225  1.313694 -1.110723
      ESP Fit Center  594 is at  -3.883630  1.116257 -1.110723
      ESP Fit Center  595 is at  -4.204885  0.843381 -1.110723
      ESP Fit Center  596 is at  -3.883630 -2.110510 -1.110723
      ESP Fit Center  597 is at  -3.511225 -2.307946 -1.110723
      ESP Fit Center  598 is at  -3.105084 -2.420711 -1.110723
      ESP Fit Center  599 is at  -2.684198 -2.443530 -1.110723
      ESP Fit Center  600 is at  -2.268245 -2.375339 -1.110723
      ESP Fit Center  601 is at  -2.789729  1.366944 -1.511521
      ESP Fit Center  602 is at  -3.204523  1.320208 -1.511521
      ESP Fit Center  603 is at  -3.598519  1.182343 -1.511521
      ESP Fit Center  604 is at  -3.951958  0.960263 -1.511521
      ESP Fit Center  605 is at  -4.247118  0.665103 -1.511521
      ESP Fit Center  606 is at  -4.469198  0.311664 -1.511521
      ESP Fit Center  607 is at  -4.247118 -1.659355 -1.511521
      ESP Fit Center  608 is at  -3.951958 -1.954516 -1.511521
      ESP Fit Center  609 is at  -3.598519 -2.176596 -1.511521
      ESP Fit Center  610 is at  -3.204523 -2.314461 -1.511521
      ESP Fit Center  611 is at  -2.789729 -2.361197 -1.511521
      ESP Fit Center  612 is at  -2.374934 -2.314461 -1.511521
      ESP Fit Center  613 is at  -1.980939 -2.176596 -1.511521
      ESP Fit Center  614 is at  -2.683147  1.196934 -1.885848
      ESP Fit Center  615 is at  -3.107791  1.170218 -1.885848
      ESP Fit Center  616 is at  -3.512450  1.038736 -1.885848
      ESP Fit Center  617 is at  -3.871698  0.810750 -1.885848
      ESP Fit Center  618 is at  -4.162962  0.500586 -1.885848
      ESP Fit Center  619 is at  -4.367940  0.127732 -1.885848
      ESP Fit Center  620 is at  -4.473754 -0.284384 -1.885848
      ESP Fit Center  621 is at  -4.473754 -0.709868 -1.885848
      ESP Fit Center  622 is at  -4.367940 -1.121985 -1.885848
      ESP Fit Center  623 is at  -4.162962 -1.494839 -1.885848
      ESP Fit Center  624 is at  -3.871698 -1.805003 -1.885848
      ESP Fit Center  625 is at  -3.512450 -2.032989 -1.885848
      ESP Fit Center  626 is at  -3.107791 -2.164470 -1.885848
      ESP Fit Center  627 is at  -2.683147 -2.191187 -1.885848
      ESP Fit Center  628 is at  -2.265200 -2.111459 -1.885848
      ESP Fit Center  629 is at  -1.880211 -1.930297 -1.885848
      ESP Fit Center  630 is at  -2.184650  0.827811 -2.217344
      ESP Fit Center  631 is at  -2.582438  0.944612 -2.217344
      ESP Fit Center  632 is at  -2.997019  0.944612 -2.217344
      ESP Fit Center  633 is at  -3.394807  0.827811 -2.217344
      ESP Fit Center  634 is at  -3.743575  0.603671 -2.217344
      ESP Fit Center  635 is at  -4.015068  0.290352 -2.217344
      ESP Fit Center  636 is at  -4.187291 -0.086765 -2.217344
      ESP Fit Center  637 is at  -4.246292 -0.497126 -2.217344
      ESP Fit Center  638 is at  -4.187291 -0.907488 -2.217344
      ESP Fit Center  639 is at  -4.015068 -1.284604 -2.217344
      ESP Fit Center  640 is at  -3.743575 -1.597924 -2.217344
      ESP Fit Center  641 is at  -3.394807 -1.822063 -2.217344
      ESP Fit Center  642 is at  -2.997019 -1.938864 -2.217344
      ESP Fit Center  643 is at  -2.582438 -1.938864 -2.217344
      ESP Fit Center  644 is at  -2.184650 -1.822063 -2.217344
      ESP Fit Center  645 is at  -1.835882 -1.597924 -2.217344
      ESP Fit Center  646 is at  -1.564389 -1.284604 -2.217344
      ESP Fit Center  647 is at  -1.637669 -0.497126 -2.491521
      ESP Fit Center  648 is at  -1.715465 -0.080955 -2.491521
      ESP Fit Center  649 is at  -1.938347  0.279011 -2.491521
      ESP Fit Center  650 is at  -2.276212  0.534155 -2.491521
      ESP Fit Center  651 is at  -2.683430  0.650018 -2.491521
      ESP Fit Center  652 is at  -3.105004  0.610954 -2.491521
      ESP Fit Center  653 is at  -3.483999  0.422237 -2.491521
      ESP Fit Center  654 is at  -3.769229  0.109355 -2.491521
      ESP Fit Center  655 is at  -3.922172 -0.285436 -2.491521
      ESP Fit Center  656 is at  -3.922172 -0.708817 -2.491521
      ESP Fit Center  657 is at  -3.769229 -1.103607 -2.491521
      ESP Fit Center  658 is at  -3.483999 -1.416489 -2.491521
      ESP Fit Center  659 is at  -3.105004 -1.605206 -2.491521
      ESP Fit Center  660 is at  -2.683430 -1.644271 -2.491521
      ESP Fit Center  661 is at  -2.276212 -1.528407 -2.491521
      ESP Fit Center  662 is at  -1.938347 -1.273264 -2.491521
      ESP Fit Center  663 is at  -1.715465 -0.913298 -2.491521
      ESP Fit Center  664 is at  -1.992525 -0.497126 -2.696397
      ESP Fit Center  665 is at  -2.099330 -0.098524 -2.696397
      ESP Fit Center  666 is at  -2.391127  0.193272 -2.696397
      ESP Fit Center  667 is at  -2.789729  0.300077 -2.696397
      ESP Fit Center  668 is at  -3.188330  0.193272 -2.696397
      ESP Fit Center  669 is at  -3.480127 -0.098524 -2.696397
      ESP Fit Center  670 is at  -3.586932 -0.497126 -2.696397
      ESP Fit Center  671 is at  -3.480127 -0.895728 -2.696397
      ESP Fit Center  672 is at  -3.188330 -1.187525 -2.696397
      ESP Fit Center  673 is at  -2.789729 -1.294330 -2.696397
      ESP Fit Center  674 is at  -2.391127 -1.187525 -2.696397
      ESP Fit Center  675 is at  -2.099330 -0.895728 -2.696397
      ESP Fit Center  676 is at  -2.382222 -0.497126 -2.823017
      ESP Fit Center  677 is at  -2.585975 -0.144215 -2.823017
      ESP Fit Center  678 is at  -2.993482 -0.144215 -2.823017
      ESP Fit Center  679 is at  -3.197235 -0.497126 -2.823017
      ESP Fit Center  680 is at  -2.993482 -0.850038 -2.823017
      ESP Fit Center  681 is at  -2.585975 -0.850038 -2.823017
[...]
 5260 Fit      -0.009120
 5261 Fit      -0.007111
 5262 Fit      -0.005334
 5263 Fit      -0.003845
 5264 Fit      -0.002769
 5265 Fit      -0.002196
 5266 Fit      -0.002115
 5267 Fit      -0.002412
 5268 Fit      -0.002938
 5269 Fit      -0.003601
 5270 Fit       0.000063
 5271 Fit      -0.013415
 5272 Fit      -0.010124
 5273 Fit      -0.007761
 5274 Fit      -0.005851
 5275 Fit      -0.004097
 5276 Fit      -0.002403
 5277 Fit      -0.000824
 5278 Fit       0.000497
 5279 Fit       0.001420
 5280 Fit       0.001866
 5281 Fit       0.001866
 5282 Fit       0.001550
 5283 Fit       0.001100
 5284 Fit       0.000664
 5285 Fit       0.000321
 5286 Fit       0.005314
 5287 Fit      -0.006051
 5288 Fit      -0.004121
 5289 Fit      -0.002628
 5290 Fit      -0.001183
 5291 Fit       0.000369
 5292 Fit       0.002004
 5293 Fit       0.003584
 5294 Fit       0.004923
 5295 Fit       0.005854
 5296 Fit       0.006282
 5297 Fit       0.006231
 5298 Fit       0.005838
 5299 Fit       0.005325
 5300 Fit       0.004909
 5301 Fit       0.004731
 5302 Fit       0.004844
 5303 Fit       0.000787
 5304 Fit       0.001586
 5305 Fit       0.002479
 5306 Fit       0.003665
 5307 Fit       0.005144
 5308 Fit       0.006792
 5309 Fit       0.008412
 5310 Fit       0.009785
 5311 Fit       0.010723
 5312 Fit       0.011116
 5313 Fit       0.010969
 5314 Fit       0.010420
 5315 Fit       0.009716
 5316 Fit       0.009154
 5317 Fit       0.008985
 5318 Fit       0.009310
 5319 Fit       0.007098
 5320 Fit       0.006969
 5321 Fit       0.007327
 5322 Fit       0.008256
 5323 Fit       0.009671
 5324 Fit       0.011383
 5325 Fit       0.013148
 5326 Fit       0.014706
 5327 Fit       0.015820
 5328 Fit       0.016322
 5329 Fit       0.016163
 5330 Fit       0.015440
 5331 Fit       0.014399
 5332 Fit       0.013410
 5333 Fit       0.012900
 5334 Fit       0.013452
 5335 Fit       0.012447
 5336 Fit       0.012462
 5337 Fit       0.013382
 5338 Fit       0.014969
 5339 Fit       0.016922
 5340 Fit       0.016645
 5341 Fit       0.015984
 5342 Fit       0.017667
 5343 Fit       0.017561
 5344 Fit       0.018636
 5345 Fit       0.022857
 5346 Fit       0.022238
 5347 Fit      -0.005913
 5348 Fit      -0.001646
 5349 Fit      -0.005379
 5350 Fit      -0.010707
 5351 Fit      -0.011429
 5352 Fit      -0.006730
 5353 Fit      -0.002138
 5354 Fit       0.001470
 5355 Fit      -0.000649
 5356 Fit      -0.004932
 5357 Fit      -0.010998
 5358 Fit      -0.016892
 5359 Fit      -0.019887
 5360 Fit      -0.008145
 5361 Fit      -0.002599
 5362 Fit       0.000951
 5363 Fit       0.002045
 5364 Fit       0.003351
 5365 Fit       0.002407
 5366 Fit       0.000033
 5367 Fit      -0.004422
 5368 Fit      -0.010747
 5369 Fit      -0.018012
 5370 Fit      -0.024894
 5371 Fit       0.000879
 5372 Fit       0.003657
 5373 Fit       0.004297
 5374 Fit       0.003888
 5375 Fit       0.004079
 5376 Fit       0.003401
 5377 Fit       0.000553
 5378 Fit      -0.004740
 5379 Fit      -0.012071
 5380 Fit      -0.020607
 5381 Fit      -0.029480
 5382 Fit       0.003558
 5383 Fit       0.006135
 5384 Fit       0.016661
 5385 Fit       0.016806
 5386 Fit       0.017239
 5387 Fit       0.018007
 5388 Fit       0.019189
 5389 Fit       0.020901
 5390 Fit       0.017182
 5391 Fit       0.016789
 5392 Fit       0.015481
 5393 Fit       0.015703
 5394 Fit       0.016105
 5395 Fit       0.016737
 5396 Fit       0.017646
 5397 Fit       0.018859
 5398 Fit       0.020344
 5399 Fit       0.015235
 5400 Fit       0.015371
 5401 Fit       0.014092
 5402 Fit       0.014444
 5403 Fit       0.014835
 5404 Fit       0.015318
 5405 Fit       0.015901
 5406 Fit       0.016533
 5407 Fit       0.017042
 5408 Fit       0.017045
 5409 Fit       0.011553
 5410 Fit       0.012958
 5411 Fit       0.013668
 5412 Fit       0.012543
 5413 Fit       0.013050
 5414 Fit       0.013442
 5415 Fit       0.013766
 5416 Fit       0.013976
 5417 Fit       0.013903
 5418 Fit       0.013201
 5419 Fit       0.011334
 5420 Fit       0.007741
 5421 Fit       0.002274
 5422 Fit       0.004408
 5423 Fit       0.008177
 5424 Fit       0.010466
 5425 Fit       0.011775
 5426 Fit       0.010853
 5427 Fit       0.011479
 5428 Fit       0.011804
 5429 Fit       0.011846
 5430 Fit       0.011479
 5431 Fit       0.010429
 5432 Fit       0.008311
 5433 Fit       0.004841
 5434 Fit       0.000184
 5435 Fit      -0.004887
 5436 Fit      -0.009397
 5437 Fit      -0.012829
 5438 Fit      -0.008220
 5439 Fit      -0.003655
 5440 Fit       0.001094
 5441 Fit       0.005115
 5442 Fit       0.007971
 5443 Fit       0.009776
 5444 Fit       0.009014
 5445 Fit       0.009706
 5446 Fit       0.009819
 5447 Fit       0.009296
 5448 Fit       0.007910
 5449 Fit       0.005399
 5450 Fit       0.001789
 5451 Fit      -0.002338
 5452 Fit      -0.006077
 5453 Fit      -0.008789
 5454 Fit      -0.010209
 5455 Fit      -0.010122
 5456 Fit      -0.008497
 5457 Fit      -0.005630
 5458 Fit      -0.001922
 5459 Fit       0.001984
 5460 Fit       0.005297
 5461 Fit       0.007618
 5462 Fit       0.006992
 5463 Fit       0.007618
 5464 Fit       0.007040
 5465 Fit       0.005109
 5466 Fit       0.001901
 5467 Fit      -0.001720
 5468 Fit      -0.004440
 5469 Fit      -0.005362
 5470 Fit      -0.004214
 5471 Fit      -0.001395
 5472 Fit       0.002123
 5473 Fit       0.005144
 5474 Fit       0.004731
 5475 Fit       0.004699
 5476 Fit       0.002044
 5477 Fit      -0.000858
 5478 Fit      -0.000756
 5479 Fit       0.002182
 5480 Fit       0.002150
 5481 Fit       0.002956
 5482 Fit       0.004418
 5483 Fit       0.003562
 5484 Fit       0.001039
 5485 Fit       0.000844
 5486 Fit       0.003299
 5487 Fit       0.003955
 5488 Fit       0.005511
 5489 Fit       0.005838
 5490 Fit       0.004775
 5491 Fit       0.002172
 5492 Fit      -0.001445
 5493 Fit      -0.003869
 5494 Fit       0.004509
 5495 Fit       0.003494
 5496 Fit       0.004277
 5497 Fit       0.006441
 5498 Fit       0.007376
 5499 Fit       0.007378
 5500 Fit       0.006403
 5501 Fit       0.004243
 5502 Fit       0.000644
 5503 Fit      -0.004200
 5504 Fit       0.004558
 5505 Fit       0.007349
 5506 Fit       0.008644
 5507 Fit       0.009156
 5508 Fit       0.009004
 5509 Fit       0.008127
 5510 Fit       0.006267
 5511 Fit       0.002959
 5512 Fit       0.004986
 5513 Fit       0.008323
 5514 Fit       0.009815
 5515 Fit       0.010604
 5516 Fit       0.010900
 5517 Fit       0.010756
 5518 Fit       0.010069
 5519 Fit       0.008522
 5520 Fit       0.005487
 5521 Fit       0.009401
 5522 Fit       0.010915
 5523 Fit       0.011836
 5524 Fit       0.012404
 5525 Fit       0.012734
 5526 Fit       0.012846
 5527 Fit       0.012646
 5528 Fit       0.011838
 5529 Fit       0.010578
 5530 Fit       0.012046
 5531 Fit       0.013014
 5532 Fit       0.013740
 5533 Fit       0.014369
 5534 Fit       0.014991
 5535 Fit       0.015640
 5536 Fit       0.016249
 5537 Fit       0.011830
 5538 Fit       0.013139
 5539 Fit       0.014084
 5540 Fit       0.014903
 5541 Fit       0.015751
 5542 Fit       0.016766
 5543 Fit       0.018091
 5544 Fit       0.019888
 5545 Fit       0.013123
 5546 Fit       0.014231
 5547 Fit       0.015121
 5548 Fit       0.016003
 5549 Fit       0.017036
 5550 Fit       0.018396
 5551 Fit       0.020317
 5552 Fit       0.023158
 5553 Fit       0.014443
 5554 Fit       0.015352
 5555 Fit       0.016204
 5556 Fit       0.017187
 5557 Fit       0.018486
 5558 Fit       0.020343
 5559 Fit       0.015794
 5560 Fit       0.016498
 5561 Fit       0.017332
 5562 Fit       0.018471
 5563 Fit       0.020138
 5564 Fit       0.015010
 5565 Fit       0.020208
 5566 Fit       0.021029
 5567 Fit       0.022479
 5568 Fit       0.022900
 5569 Fit       0.022174
 5570 Fit       0.022770
 5571 Fit       0.021465
 5572 Fit       0.023468
 5573 Fit       0.024882
 5574 Fit       0.025596
 5575 Fit       0.025528
 5576 Fit       0.024607
 5577 Fit       0.024859
 5578 Fit       0.022340
 5579 Fit       0.020594
 5580 Fit       0.022836
 5581 Fit       0.024807
 5582 Fit       0.026351
 5583 Fit       0.027364
 5584 Fit       0.027772
 5585 Fit       0.027521
 5586 Fit       0.026567
 5587 Fit       0.026474
 5588 Fit       0.024266
 5589 Fit       0.021340
 5590 Fit       0.021249
 5591 Fit       0.023420
 5592 Fit       0.025415
 5593 Fit       0.027078
 5594 Fit       0.028314
 5595 Fit       0.029062
 5596 Fit       0.029282
 5597 Fit       0.028944
 5598 Fit       0.028019
 5599 Fit       0.027619
 5600 Fit       0.025575
 5601 Fit       0.022878
 5602 Fit       0.019485
 5603 Fit       0.021905
 5604 Fit       0.024259
 5605 Fit       0.026339
 5606 Fit       0.028027
 5607 Fit       0.029258
 5608 Fit       0.029997
 5609 Fit       0.030222
 5610 Fit       0.029914
 5611 Fit       0.029054
 5612 Fit       0.028298
 5613 Fit       0.026455
 5614 Fit       0.024035
 5615 Fit       0.015995
 5616 Fit       0.018953
 5617 Fit       0.021850
 5618 Fit       0.024453
 5619 Fit       0.026647
 5620 Fit       0.028376
 5621 Fit       0.029620
 5622 Fit       0.030368
 5623 Fit       0.030617
 5624 Fit       0.030361
 5625 Fit       0.029593
 5626 Fit       0.028511
 5627 Fit       0.026844
 5628 Fit       0.024650
 5629 Fit       0.021910
 5630 Fit       0.016801
 5631 Fit       0.020414
 5632 Fit       0.023469
 5633 Fit       0.025954
 5634 Fit       0.027879
 5635 Fit       0.029262
 5636 Fit       0.030120
 5637 Fit       0.030469
 5638 Fit       0.030316
 5639 Fit       0.029665
 5640 Fit       0.028248
 5641 Fit       0.026700
 5642 Fit       0.024628
 5643 Fit       0.022039
 5644 Fit       0.016153
 5645 Fit       0.020329
 5646 Fit       0.023612
 5647 Fit       0.026119
 5648 Fit       0.027935
 5649 Fit       0.029122
 5650 Fit       0.029722
 5651 Fit       0.029766
 5652 Fit       0.029271
 5653 Fit       0.027489
 5654 Fit       0.026072
 5655 Fit       0.024124
 5656 Fit       0.014611
 5657 Fit       0.019404
 5658 Fit       0.022963
 5659 Fit       0.025533
 5660 Fit       0.027270
 5661 Fit       0.028276
 5662 Fit       0.028620
 5663 Fit       0.028347
 5664 Fit       0.026197
 5665 Fit       0.024989
 5666 Fit       0.023260
 5667 Fit       0.013348
 5668 Fit       0.018438
 5669 Fit       0.022050
 5670 Fit       0.024520
 5671 Fit       0.026057
 5672 Fit       0.026793
 5673 Fit       0.026818
 5674 Fit       0.024307
 5675 Fit       0.023307
 5676 Fit       0.021752
 5677 Fit       0.015667
 5678 Fit       0.019864
 5679 Fit       0.022556
 5680 Fit       0.024067
 5681 Fit       0.024603
 5682 Fit       0.021705
 5683 Fit       0.021039
 5684 Fit       0.012816
 5685 Fit       0.017436
 5686 Fit       0.020180
 5687 Fit       0.021503
 5688 Fit       0.018198
 5689 Fit       0.017970
 5690 Fit       0.014327
 5691 Fit       0.017165
 5692 Fit       0.013433
 5693 Fit       0.004853
 5694 Fit       0.002333
 5695 Fit      -0.001560
 5696 Fit       0.010893
 5697 Fit       0.009123
 5698 Fit       0.006659
 5699 Fit       0.003290
 5700 Fit      -0.001203
 5701 Fit      -0.007071
 5702 Fit       0.015599
 5703 Fit       0.014054
 5704 Fit       0.012150
 5705 Fit       0.009696
 5706 Fit       0.006527
 5707 Fit       0.002472
 5708 Fit      -0.002671
 5709 Fit      -0.009160
 5710 Fit       0.019307
 5711 Fit       0.017894
 5712 Fit       0.016327
 5713 Fit       0.014436
 5714 Fit       0.012090
 5715 Fit       0.009166
 5716 Fit       0.005538
 5717 Fit       0.001055
 5718 Fit      -0.004472
 5719 Fit      -0.011298
 5720 Fit       0.021939
 5721 Fit       0.020574
 5722 Fit       0.019123
 5723 Fit       0.017428
 5724 Fit       0.015373
 5725 Fit       0.012851
 5726 Fit       0.009756
 5727 Fit       0.005971
 5728 Fit       0.001351
 5729 Fit      -0.004290
 5730 Fit      -0.011204
 5731 Fit       0.023781
 5732 Fit       0.022515
 5733 Fit       0.021186
 5734 Fit       0.019668
 5735 Fit       0.017862
 5736 Fit       0.015679
 5737 Fit       0.013032
 5738 Fit       0.009831
 5739 Fit       0.005967
 5740 Fit       0.001309
 5741 Fit      -0.004314
 5742 Fit      -0.011133
 5743 Fit       0.024855
 5744 Fit       0.023681
 5745 Fit       0.022432
 5746 Fit       0.021010
 5747 Fit       0.019330
 5748 Fit       0.017314
 5749 Fit       0.014888
 5750 Fit       0.011971
 5751 Fit       0.008476
 5752 Fit       0.004297
 5753 Fit      -0.000702
 5754 Fit      -0.006693
 5755 Fit       0.025192
 5756 Fit       0.024048
 5757 Fit       0.022793
 5758 Fit       0.021339
 5759 Fit       0.019602
 5760 Fit       0.017508
 5761 Fit       0.014980
 5762 Fit       0.011938
 5763 Fit       0.008291
 5764 Fit       0.003931
 5765 Fit      -0.001279
 5766 Fit      -0.007511
 5767 Fit       0.024899
 5768 Fit       0.023741
 5769 Fit       0.022425
 5770 Fit       0.020860
 5771 Fit       0.018960
 5772 Fit       0.016647
 5773 Fit       0.013838
 5774 Fit       0.010445
 5775 Fit       0.006367
 5776 Fit       0.001485
 5777 Fit      -0.004348
 5778 Fit      -0.011311
 5779 Fit       0.024035
 5780 Fit       0.022856
 5781 Fit       0.021469
 5782 Fit       0.019780
 5783 Fit       0.017702
 5784 Fit       0.015152
 5785 Fit       0.012046
 5786 Fit       0.008292
 5787 Fit       0.003787
 5788 Fit      -0.001586
 5789 Fit      -0.007956
 5790 Fit       0.023545
 5791 Fit       0.022402
 5792 Fit       0.021073
 5793 Fit       0.019414
 5794 Fit       0.017313
 5795 Fit       0.014666
 5796 Fit       0.011374
 5797 Fit       0.007335
 5798 Fit       0.002445
 5799 Fit      -0.003401
 5800 Fit       0.021250
 5801 Fit       0.020055
 5802 Fit       0.018503
 5803 Fit       0.016437
 5804 Fit       0.013733
 5805 Fit       0.010278
 5806 Fit       0.005972
 5807 Fit       0.000736
 5808 Fit      -0.005460
 5809 Fit       0.018103
 5810 Fit       0.016724
 5811 Fit       0.014618
 5812 Fit       0.011631
 5813 Fit       0.007650
 5814 Fit       0.002617
 5815 Fit      -0.003396
 5816 Fit       0.013951
 5817 Fit       0.011750
 5818 Fit       0.007964
 5819 Fit       0.002660
 5820 Fit       0.008130
 5821 Fit       0.002902
 5822 Fit       0.011952
 5823 Fit       0.015222
 5824 Fit       0.007826
 5825 Fit       0.013129
 5826 Fit       0.016783
 5827 Fit       0.019118
 5828 Fit       0.020334
 5829 Fit       0.020509
 5830 Fit      -0.003095
 5831 Fit       0.005144
 5832 Fit       0.011195
 5833 Fit       0.015642
 5834 Fit       0.018848
 5835 Fit       0.021055
 5836 Fit       0.022441
 5837 Fit       0.023140
 5838 Fit       0.023251
 5839 Fit      -0.006283
 5840 Fit       0.002219
 5841 Fit       0.008647
 5842 Fit       0.013555
 5843 Fit       0.017287
 5844 Fit       0.020076
 5845 Fit       0.022091
 5846 Fit       0.023467
 5847 Fit       0.024328
 5848 Fit       0.024801
 5849 Fit       0.025041
 5850 Fit       0.025237
 5851 Fit      -0.002682
 5852 Fit       0.004600
 5853 Fit       0.010251
 5854 Fit       0.014649
 5855 Fit       0.018044
 5856 Fit       0.020614
 5857 Fit       0.022495
 5858 Fit       0.023803
 5859 Fit       0.024653
 5860 Fit       0.025174
 5861 Fit       0.025541
 5862 Fit       0.026015
 5863 Fit      -0.007878
 5864 Fit      -0.000055
 5865 Fit       0.006151
 5866 Fit       0.011092
 5867 Fit       0.015010
 5868 Fit       0.018077
 5869 Fit       0.020423
 5870 Fit       0.022153
 5871 Fit       0.023362
 5872 Fit       0.024144
 5873 Fit       0.024610
 5874 Fit       0.024911
 5875 Fit       0.025276
 5876 Fit       0.026081
 5877 Fit      -0.010042
 5878 Fit      -0.002454
 5879 Fit       0.003728
 5880 Fit       0.008753
 5881 Fit       0.012806
 5882 Fit       0.016032
 5883 Fit       0.018541
 5884 Fit       0.020426
 5885 Fit       0.021768
 5886 Fit       0.022643
 5887 Fit       0.023137
 5888 Fit       0.023359
 5889 Fit       0.023462
 5890 Fit       0.023686
 5891 Fit       0.024432
 5892 Fit      -0.000564
 5893 Fit       0.004953
 5894 Fit       0.009456
 5895 Fit       0.013069
 5896 Fit       0.015899
 5897 Fit       0.018036
 5898 Fit       0.019556
 5899 Fit       0.020533
 5900 Fit       0.021041
 5901 Fit       0.021168
 5902 Fit       0.021035
 5903 Fit       0.020825
 5904 Fit       0.002371
 5905 Fit       0.007049
 5906 Fit       0.010789
 5907 Fit       0.013682
 5908 Fit       0.015812
 5909 Fit       0.017253
 5910 Fit       0.018071
 5911 Fit       0.018337
 5912 Fit       0.018134
 5913 Fit       0.017571
 5914 Fit       0.003917
 5915 Fit       0.007773
 5916 Fit       0.010716
 5917 Fit       0.012818
 5918 Fit       0.014145
 5919 Fit       0.014756
 5920 Fit       0.014707
 5921 Fit       0.016807
 5922 Fit       0.018409
 5923 Fit       0.019462
 5924 Fit       0.020018
 5925 Fit       0.020081
 5926 Fit       0.019686
 5927 Fit       0.018912
 5928 Fit       0.017910
 5929 Fit       0.020244
 5930 Fit       0.021357
 5931 Fit       0.022176
 5932 Fit       0.022615
 5933 Fit       0.022629
 5934 Fit       0.022201
 5935 Fit       0.021352
 5936 Fit       0.020155
 5937 Fit       0.018784
 5938 Fit       0.017615
 5939 Fit       0.023157
 5940 Fit       0.023808
 5941 Fit       0.024346
 5942 Fit       0.024623
 5943 Fit       0.024547
 5944 Fit       0.024057
 5945 Fit       0.023115
 5946 Fit       0.021707
 5947 Fit       0.019861
 5948 Fit       0.017706
 5949 Fit       0.025856
 5950 Fit       0.025462
 5951 Fit       0.025614
 5952 Fit       0.025899
 5953 Fit       0.026074
 5954 Fit       0.025985
 5955 Fit       0.025525
 5956 Fit       0.024607
 5957 Fit       0.023148
 5958 Fit       0.021063
 5959 Fit       0.018259
 5960 Fit       0.027192
 5961 Fit       0.026944
 5962 Fit       0.026989
 5963 Fit       0.026996
 5964 Fit       0.026756
 5965 Fit       0.026119
 5966 Fit       0.024951
 5967 Fit       0.023107
 5968 Fit       0.020394
 5969 Fit       0.016535
 5970 Fit       0.027433
 5971 Fit       0.027335
 5972 Fit       0.027305
 5973 Fit       0.027068
 5974 Fit       0.026421
 5975 Fit       0.025187
 5976 Fit       0.023161
 5977 Fit       0.020062
 5978 Fit       0.015443
 5979 Fit       0.026537
 5980 Fit       0.026760
 5981 Fit       0.026693
 5982 Fit       0.026166
 5983 Fit       0.024997
 5984 Fit       0.022962
 5985 Fit       0.019737
 5986 Fit       0.014803
 5987 Fit       0.024990
 5988 Fit       0.025341
 5989 Fit       0.024883
 5990 Fit       0.023486
 5991 Fit       0.020872
 5992 Fit       0.016569
 5993 Fit       0.022939
 5994 Fit       0.022852
 5995 Fit       0.021354
 5996 Fit       0.018191
 5997 Fit       0.012789
 5998 Fit       0.019221
 5999 Fit       0.016091
 6000 Fit       0.010152
 -----------------------------------------------------------------
 Leave Link  602 at Wed Sep 16 21:36:30 2015, MaxMem=   33554432 cpu:       1.6

 Test job not archived.
 1\1\GINC-NID05431\SP\RHF\6-31G(d)\C3H7O7P1\NMIH\16-Sep-2015\0\\#HF/6-3
 1G* Test Pop=MK iop(6/33=2) iop(6/42=6)\\18 atoms\\0,1\C,0,-0.731,0.05
 4,-1.975\C,0,0.297,-0.09,-0.883\C,0,1.685,0.219,-1.447\P,0,-0.238,-0.0
 64,1.498\O,0,-1.627,0.855,-1.858\O,0,-0.651,-0.707,-3.077\O,0,2.661,0.
 082,-0.411\O,0,0.,0.821,0.175\O,0,0.987,-0.837,1.8\O,0,-0.58,0.904,2.7
 38\O,0,-1.465,-1.076,1.254\H,0,0.279,-1.11,-0.5\H,0,1.703,1.239,-1.83\
 H,0,1.913,-0.476,-2.255\H,0,-1.311,-0.614,-3.778\H,0,3.519,0.285,-0.80
 8\H,0,-0.714,0.335,3.508\H,0,-2.241,-0.533,1.06\\Version=AM64L-G09RevC
 .01\State=1-A\HF=-982.4876752\RMSD=4.462e-09\Dipole=-0.8986656,-0.0517
 514,-1.3316573\Quadrupole=1.7897469,-10.2592487,8.4695018,5.644411,-9.
 1818488,2.95338\PG=C01 [X(C3H7O7P1)]\\@


 SCIENCE IS A VERY HUMAN FORM OF KNOWLEDGE.
 WE ARE ALWAYS AT THE BRINK OF THE KNOWN,
 WE ALWAYS FEEL FORWARD FOR WHAT IS HOPED.
 EVERY JUDGEMENT IN SCIENCE STANDS ON THE EDGE OF ERROR, AND IS PERSONAL.
 SCIENCE IS A TRIBUTE TO WHAT WE CAN KNOW ALTHOUGH WE ARE FALLIBLE.

                     -- J. BRONOWSKI
 Job cpu time:  0 days  0 hours  1 minutes  9.6 seconds.
 File lengths (MBytes):  RWF=     21 Int=      0 D2E=      0 Chk=      2 Scr=      1
 Normal termination of Gaussian 09 at Wed Sep 16 21:36:31 2015.
