 Entering Gaussian System, Link 0=g09
 Input=F6P_-2.gau
 Output=F6P_-2.log
 Initial command:
 /usr/common/software/g09/d1/g09/l1.exe "/global/cscratch1/sd/nmih/Gau-6662.inp" -scrdir="/global/cscratch1/sd/nmih/"
 Entering Link 1 = /usr/common/software/g09/d1/g09/l1.exe PID=      6663.
  
 Copyright (c) 1988,1990,1992,1993,1995,1998,2003,2009,2013,
            Gaussian, Inc.  All Rights Reserved.
  
 This is part of the Gaussian(R) 09 program.  It is based on
 the Gaussian(R) 03 system (copyright 2003, Gaussian, Inc.),
 the Gaussian(R) 98 system (copyright 1998, Gaussian, Inc.),
 the Gaussian(R) 94 system (copyright 1995, Gaussian, Inc.),
 the Gaussian 92(TM) system (copyright 1992, Gaussian, Inc.),
 the Gaussian 90(TM) system (copyright 1990, Gaussian, Inc.),
 the Gaussian 88(TM) system (copyright 1988, Gaussian, Inc.),
 the Gaussian 86(TM) system (copyright 1986, Carnegie Mellon
 University), and the Gaussian 82(TM) system (copyright 1983,
 Carnegie Mellon University). Gaussian is a federally registered
 trademark of Gaussian, Inc.
  
 This software contains proprietary and confidential information,
 including trade secrets, belonging to Gaussian, Inc.
  
 This software is provided under written license and may be
 used, copied, transmitted, or stored only in accord with that
 written license.
  
 The following legend is applicable only to US Government
 contracts under FAR:
  
                    RESTRICTED RIGHTS LEGEND
  
 Use, reproduction and disclosure by the US Government is
 subject to restrictions as set forth in subparagraphs (a)
 and (c) of the Commercial Computer Software - Restricted
 Rights clause in FAR 52.227-19.
  
 Gaussian, Inc.
 340 Quinnipiac St., Bldg. 40, Wallingford CT 06492
  
  
 ---------------------------------------------------------------
 Warning -- This program may not be used in any manner that
 competes with the business of Gaussian, Inc. or will provide
 assistance to any competitor of Gaussian, Inc.  The licensee
 of this program is prohibited from giving any competitor of
 Gaussian, Inc. access to this program.  By using this program,
 the user acknowledges that Gaussian, Inc. is engaged in the
 business of creating and licensing software in the field of
 computational chemistry and represents and warrants to the
 licensee that it is not a competitor of Gaussian, Inc. and that
 it will not use this program in any manner prohibited above.
 ---------------------------------------------------------------
  

 Cite this work as:
 Gaussian 09, Revision D.01,
 M. J. Frisch, G. W. Trucks, H. B. Schlegel, G. E. Scuseria, 
 M. A. Robb, J. R. Cheeseman, G. Scalmani, V. Barone, B. Mennucci, 
 G. A. Petersson, H. Nakatsuji, M. Caricato, X. Li, H. P. Hratchian, 
 A. F. Izmaylov, J. Bloino, G. Zheng, J. L. Sonnenberg, M. Hada, 
 M. Ehara, K. Toyota, R. Fukuda, J. Hasegawa, M. Ishida, T. Nakajima, 
 Y. Honda, O. Kitao, H. Nakai, T. Vreven, J. A. Montgomery, Jr., 
 J. E. Peralta, F. Ogliaro, M. Bearpark, J. J. Heyd, E. Brothers, 
 K. N. Kudin, V. N. Staroverov, T. Keith, R. Kobayashi, J. Normand, 
 K. Raghavachari, A. Rendell, J. C. Burant, S. S. Iyengar, J. Tomasi, 
 M. Cossi, N. Rega, J. M. Millam, M. Klene, J. E. Knox, J. B. Cross, 
 V. Bakken, C. Adamo, J. Jaramillo, R. Gomperts, R. E. Stratmann, 
 O. Yazyev, A. J. Austin, R. Cammi, C. Pomelli, J. W. Ochterski, 
 R. L. Martin, K. Morokuma, V. G. Zakrzewski, G. A. Voth, 
 P. Salvador, J. J. Dannenberg, S. Dapprich, A. D. Daniels, 
 O. Farkas, J. B. Foresman, J. V. Ortiz, J. Cioslowski, 
 and D. J. Fox, Gaussian, Inc., Wallingford CT, 2013.
 
 ******************************************
 Gaussian 09:  ES64L-G09RevD.01 24-Apr-2013
                 3-Apr-2017 
 ******************************************
 %chk=F6P.chk
 ----------------------------------------------
 #HF/6-31G* Test Pop=MK iop(6/33=2) iop(6/42=6)
 ----------------------------------------------
 1/38=1/1;
 2/12=2,17=6,18=5,40=1/2;
 3/5=1,6=6,7=1,11=9,16=1,25=1,30=1/1,2,3;
 4//1;
 5/5=2,38=5/2;
 6/7=2,8=2,9=2,10=2,15=8,20=1,28=1,33=2,42=6/1,2;
 99/5=1,9=1/99;
 -------
 F6P.pdb
 -------
 Symbolic Z-matrix:
 Charge = -2 Multiplicity = 1
 O                     2.812    -0.579     2.931 
 C                     1.439    -0.819     3.247 
 C                     0.555     0.12      2.425 
 O                     0.891     1.478     2.715 
 C                    -0.93     -0.134     2.756 
 O                    -1.433     0.852     3.659 
 C                    -1.604    -0.004     1.362 
 O                    -2.793    -0.793     1.287 
 C                    -0.496    -0.577     0.443 
 O                     0.74     -0.137     1.028 
 C                    -0.639    -0.021    -0.975 
 O                     0.428    -0.511    -1.788 
 P                     0.216     0.109    -3.258 
 O                     0.25      1.586    -3.18 
 O                     1.391    -0.403    -4.232 
 O                    -1.208    -0.364    -3.84 
 H                     3.333    -1.191     3.47 
 H                     1.187    -1.853     3.012 
 H                     1.273    -0.637     4.309 
 H                     1.824     1.59      2.49 
 H                    -1.07     -1.136     3.163 
 H                    -2.382     0.688     3.752 
 H                    -1.812     1.038     1.123 
 H                    -3.438    -0.382     1.88 
 H                    -0.542    -1.666     0.429 
 H                    -1.592    -0.341    -1.396 
 H                    -0.603     1.067    -0.944 
 
                          Input orientation:                          
 ---------------------------------------------------------------------
 Center     Atomic      Atomic             Coordinates (Angstroms)
 Number     Number       Type             X           Y           Z
 ---------------------------------------------------------------------
      1          8           0        2.812000   -0.579000    2.931000
      2          6           0        1.439000   -0.819000    3.247000
      3          6           0        0.555000    0.120000    2.425000
      4          8           0        0.891000    1.478000    2.715000
      5          6           0       -0.930000   -0.134000    2.756000
      6          8           0       -1.433000    0.852000    3.659000
      7          6           0       -1.604000   -0.004000    1.362000
      8          8           0       -2.793000   -0.793000    1.287000
      9          6           0       -0.496000   -0.577000    0.443000
     10          8           0        0.740000   -0.137000    1.028000
     11          6           0       -0.639000   -0.021000   -0.975000
     12          8           0        0.428000   -0.511000   -1.788000
     13         15           0        0.216000    0.109000   -3.258000
     14          8           0        0.250000    1.586000   -3.180000
     15          8           0        1.391000   -0.403000   -4.232000
     16          8           0       -1.208000   -0.364000   -3.840000
     17          1           0        3.333000   -1.191000    3.470000
     18          1           0        1.187000   -1.853000    3.012000
     19          1           0        1.273000   -0.637000    4.309000
     20          1           0        1.824000    1.590000    2.490000
     21          1           0       -1.070000   -1.136000    3.163000
     22          1           0       -2.382000    0.688000    3.752000
     23          1           0       -1.812000    1.038000    1.123000
     24          1           0       -3.438000   -0.382000    1.880000
     25          1           0       -0.542000   -1.666000    0.429000
     26          1           0       -1.592000   -0.341000   -1.396000
     27          1           0       -0.603000    1.067000   -0.944000
 ---------------------------------------------------------------------
                    Distance matrix (angstroms):
                    1          2          3          4          5
     1  O    0.000000
     2  C    1.429190   0.000000
     3  C    2.416337   1.529334   0.000000
     4  O    2.822790   2.420648   1.428692   0.000000
     5  C    3.772428   2.514452   1.542499   2.432338   0.000000
     6  O    4.538477   3.348189   2.451678   2.585341   1.428501
     7  C    4.721593   3.671144   2.409694   3.201868   1.553838
     8  O    5.845046   4.663915   3.652084   4.557245   2.462318
     9  C    4.139204   3.415436   2.349199   3.362853   2.394697
    10  O    2.847799   2.424394   1.432440   2.340298   2.403101
    11  C    5.241908   4.772858   3.606316   4.266615   3.744037
    12  O    5.287442   5.144726   4.261884   4.944441   4.757544
    13  P    6.746576   6.683707   5.693113   6.164942   6.127035
    14  O    6.971039   6.964487   5.801569   5.930731   6.291812
    15  O    7.304710   7.490714   6.729641   7.214497   7.368280
    16  O    7.877377   7.578866   6.526304   7.125082   6.605861
    17  H    0.967732   1.943026   3.244693   3.695531   4.449743
    18  H    2.066461   1.089901   2.153305   3.357288   2.739012
    19  H    2.066584   1.090194   2.153608   2.675815   2.741902
    20  H    2.423878   2.554321   1.943061   0.966260   3.259977
    21  H    3.928613   2.530341   2.182385   3.298366   1.090529
    22  H    5.408971   4.138371   3.272541   3.523067   1.943194
    23  H    5.221583   4.304512   2.853177   3.167692   2.195039
    24  H    6.340813   5.083777   4.061167   4.785088   2.668135
    25  H    4.323296   3.547238   2.894343   4.142948   2.812916
    26  H    6.178575   5.565330   4.407059   5.135598   4.209536
    27  H    5.420993   5.029040   3.686181   3.973567   3.903758
                    6          7          8          9         10
     6  O    0.000000
     7  C    2.457272   0.000000
     8  O    3.190926   1.428939   0.000000
     9  C    3.641794   1.549372   2.456665   0.000000
    10  O    3.552775   2.371409   3.602708   1.436496   0.000000
    11  C    4.781895   2.528455   3.217506   1.529807   2.434565
    12  O    5.915311   3.782667   4.462061   2.415677   2.857810
    13  P    7.149555   4.966847   5.524917   3.830789   4.324915
    14  O    7.081184   5.157051   5.905386   4.284999   4.573412
    15  O    8.474543   6.357835   6.936665   5.044469   5.306803
    16  O    7.600282   5.229457   5.383530   4.346999   5.248205
    17  H    5.188866   5.497872   6.515502   4.919448   3.714556
    18  H    3.820999   3.732423   4.465381   3.325722   2.660962
    19  H    3.156273   4.166849   5.068449   4.251931   3.361406
    20  H    3.538256   3.945175   5.333159   3.777367   2.508990
    21  H    2.080848   2.193212   2.570166   2.835552   2.971923
    22  H    0.967546   2.606961   2.904911   4.013316   4.224652
    23  H    2.570901   1.089105   2.083703   2.191456   2.811113
    24  H    2.950868   1.942875   0.967778   3.279994   4.271020
    25  H    4.191313   2.181875   2.562283   1.090061   2.083307
    26  H    5.196302   2.778539   2.974087   2.153795   3.369809
    27  H    4.682172   2.732522   3.637727   2.153591   2.672461
                   11         12         13         14         15
    11  C    0.000000
    12  O    1.428131   0.000000
    13  P    2.441314   1.609423   0.000000
    14  O    2.869633   2.523243   1.479449   0.000000
    15  O    3.856796   2.629100   1.609797   2.522837   0.000000
    16  O    2.941026   2.628461   1.609419   2.522670   2.628685
    17  H    6.074842   6.045493   7.528059   7.838311   7.982049
    18  H    4.752543   5.041532   6.641173   7.144617   7.390511
    19  H    5.652951   6.156566   7.676800   7.878666   8.545020
    20  H    4.546198   4.966317   6.149677   5.884419   7.024587
    21  H    4.307207   5.210281   6.665813   7.027470   7.828144
    22  H    5.087756   6.326555   7.498329   7.469033   8.897756
    23  H    2.626597   3.986342   4.916196   4.802911   6.404039
    24  H    4.014442   5.330743   6.323910   6.563381   7.789495
    25  H    2.164867   2.681420   4.161629   4.922159   5.201594
    26  H    1.089885   2.064695   2.634086   3.207639   4.116434
    27  H    1.089037   2.065280   2.634980   2.448809   4.116780
                   16         17         18         19         20
    16  O    0.000000
    17  H    8.645271   0.000000
    18  H    7.409659   2.292013   0.000000
    19  H    8.522681   2.292256   1.779961   0.000000
    20  H    7.285605   3.312317   3.540127   2.927779   0.000000
    21  H    7.046775   4.414033   2.372960   2.655554   4.032275
    22  H    7.753931   6.022573   4.443202   3.927455   4.482933
    23  H    5.192474   6.078476   4.573861   4.740617   3.923505
    24  H    6.139350   7.002073   4.983562   5.306467   5.652391
    25  H    4.512551   4.948629   3.113888   4.405391   4.521859
    26  H    2.474090   6.975391   5.425813   6.390842   5.522573
    27  H    3.286427   6.330407   5.232632   5.832410   4.237477
                   21         22         23         24         25
    21  H    0.000000
    22  H    2.322766   0.000000
    23  H    3.072204   2.712755   0.000000
    24  H    2.796789   2.400921   2.287646   0.000000
    25  H    2.834509   4.468696   3.066945   3.484376   0.000000
    26  H    4.657144   5.308940   2.880174   3.760528   2.487720
    27  H    4.683882   5.035960   2.394788   4.255796   3.059108
                   26         27
    26  H    0.000000
    27  H    1.779013   0.000000
 Stoichiometry    C6H11O9P(2-)
 Framework group  C1[X(C6H11O9P)]
 Deg. of freedom    75
 Full point group                 C1      NOp   1
 Largest Abelian subgroup         C1      NOp   1
 Largest concise Abelian subgroup C1      NOp   1
                         Standard orientation:                         
 ---------------------------------------------------------------------
 Center     Atomic      Atomic             Coordinates (Angstroms)
 Number     Number       Type             X           Y           Z
 ---------------------------------------------------------------------
      1          8           0       -2.829641   -2.816965   -0.507941
      2          6           0       -3.138693   -1.445752   -0.766489
      3          6           0       -2.303627   -0.552911    0.152402
      4          8           0       -2.585035   -0.866214    1.517616
      5          6           0       -2.627068    0.930171   -0.121744
      6          8           0       -3.518990    1.454084    0.863448
      7          6           0       -1.227778    1.596932   -0.012980
      8          8           0       -1.151374    2.773220   -0.820678
      9          6           0       -0.320482    0.474309   -0.576083
     10          8           0       -0.909921   -0.750964   -0.112631
     11          6           0        1.102760    0.616496   -0.033428
     12          8           0        1.904982   -0.463170   -0.513344
     13         15           0        3.381171   -0.251355    0.091837
     14          8           0        3.314635   -0.262270    1.569749
     15          8           0        4.343516   -1.440397   -0.409677
     16          8           0        3.968559    1.161407   -0.407469
     17          1           0       -3.376803   -3.343714   -1.107654
     18          1           0       -2.910260   -1.211127   -1.806034
     19          1           0       -4.198131   -1.270037   -0.578769
     20          1           0       -2.365161   -1.798847    1.642147
     21          1           0       -3.041069    1.057507   -1.122564
     22          1           0       -3.607179    2.401056    0.685649
     23          1           0       -0.979214    1.819260    1.023811
     24          1           0       -1.736946    3.428296   -0.414998
     25          1           0       -0.314797    0.503571   -1.665736
     26          1           0        1.527337    1.561717   -0.371279
     27          1           0        1.080133    0.597329    1.055205
 ---------------------------------------------------------------------
 Rotational constants (GHZ):      0.8087620      0.2385805      0.2050249
 Standard basis: 6-31G(d) (6D, 7F)
 There are   266 symmetry adapted cartesian basis functions of A   symmetry.
 There are   266 symmetry adapted basis functions of A   symmetry.
   266 basis functions,   516 primitive gaussians,   266 cartesian basis functions
    68 alpha electrons       68 beta electrons
       nuclear repulsion energy      1376.2004894665 Hartrees.
 NAtoms=   27 NActive=   27 NUniq=   27 SFac= 1.00D+00 NAtFMM=   60 NAOKFM=F Big=F
 Integral buffers will be    131072 words long.
 Raffenetti 1 integral format.
 Two-electron integral symmetry is turned on.
 One-electron integrals computed using PRISM.
 NBasis=   266 RedAO= T EigKep=  1.36D-03  NBF=   266
 NBsUse=   266 1.00D-06 EigRej= -1.00D+00 NBFU=   266
 ExpMin= 9.98D-02 ExpMax= 1.94D+04 ExpMxC= 2.91D+03 IAcc=2 IRadAn=         4 AccDes= 0.00D+00
 Harris functional with IExCor=  205 and IRadAn=       4 diagonalized for initial guess.
 HarFok:  IExCor=  205 AccDes= 0.00D+00 IRadAn=         4 IDoV= 1 UseB2=F ITyADJ=14
 ICtDFT=  3500011 ScaDFX=  1.000000  1.000000  1.000000  1.000000
 FoFCou: FMM=F IPFlag=           0 FMFlag=      100000 FMFlg1=           0
         NFxFlg=           0 DoJE=T BraDBF=F KetDBF=T FulRan=T
         wScrn=  0.000000 ICntrl=     500 IOpCl=  0 I1Cent=   200000004 NGrid=           0
         NMat0=    1 NMatS0=      1 NMatT0=    0 NMatD0=    1 NMtDS0=    0 NMtDT0=    0
 Petite list used in FoFCou.
 Requested convergence on RMS density matrix=1.00D-08 within 128 cycles.
 Requested convergence on MAX density matrix=1.00D-06.
 Requested convergence on             energy=1.00D-06.
 No special actions if energy rises.
 Integral accuracy reduced to 1.0D-05 until final iterations.
 Initial convergence to 1.0D-05 achieved.  Increase integral accuracy.
 SCF Done:  E(RHF) =  -1247.94780182     A.U. after   14 cycles
            NFock= 14  Conv=0.38D-08     -V/T= 2.0021

 **********************************************************************

            Population analysis using the SCF density.

 **********************************************************************

 Orbital symmetries:
 BldTbl:  Degeneracy threshold= 1.00D-02
       Occupied  (A) (A) (A) (A) (A) (A) (A) (A) (A) (A) (A) (A)
                 (A) (A) (A) (A) (A) (A) (A) (A) (A) (A) (A) (A)
                 (A) (A) (A) (A) (A) (A) (A) (A) (A) (A) (A) (A)
                 (A) (A) (A) (A) (A) (A) (A) (A) (A) (A) (A) (A)
                 (A) (A) (A) (A) (A) (A) (A) (A) (A) (A) (A) (A)
                 (A) (A) (A) (A) (A) (A) (A) (A)
       Virtual   (A) (A) (A) (A) (A) (A) (A) (A) (A) (A) (A) (A)
                 (A) (A) (A) (A) (A) (A) (A) (A) (A) (A) (A) (A)
                 (A) (A) (A) (A) (A) (A) (A) (A) (A) (A) (A) (A)
                 (A) (A) (A) (A) (A) (A) (A) (A) (A) (A) (A) (A)
                 (A) (A) (A) (A) (A) (A) (A) (A) (A) (A) (A) (A)
                 (A) (A) (A) (A) (A) (A) (A) (A) (A) (A) (A) (A)
                 (A) (A) (A) (A) (A) (A) (A) (A) (A) (A) (A) (A)
                 (A) (A) (A) (A) (A) (A) (A) (A) (A) (A) (A) (A)
                 (A) (A) (A) (A) (A) (A) (A) (A) (A) (A) (A) (A)
                 (A) (A) (A) (A) (A) (A) (A) (A) (A) (A) (A) (A)
                 (A) (A) (A) (A) (A) (A) (A) (A) (A) (A) (A) (A)
                 (A) (A) (A) (A) (A) (A) (A) (A) (A) (A) (A) (A)
                 (A) (A) (A) (A) (A) (A) (A) (A) (A) (A) (A) (A)
                 (A) (A) (A) (A) (A) (A) (A) (A) (A) (A) (A) (A)
                 (A) (A) (A) (A) (A) (A) (A) (A) (A) (A) (A) (A)
                 (A) (A) (A) (A) (A) (A) (A) (A) (A) (A) (A) (A)
                 (A) (A) (A) (A) (A) (A)
 The electronic state is 1-A.
 Alpha  occ. eigenvalues --  -79.63462 -20.42080 -20.41896 -20.40839 -20.39106
 Alpha  occ. eigenvalues --  -20.37143 -20.24261 -20.06687 -20.05739 -20.05139
 Alpha  occ. eigenvalues --  -11.17409 -11.12807 -11.12762 -11.10670 -11.07042
 Alpha  occ. eigenvalues --  -10.99818  -7.15539  -5.05523  -5.05310  -5.05201
 Alpha  occ. eigenvalues --   -1.23911  -1.21401  -1.19697  -1.19561  -1.14939
 Alpha  occ. eigenvalues --   -1.05986  -0.87986  -0.87242  -0.84127  -0.79079
 Alpha  occ. eigenvalues --   -0.76663  -0.75566  -0.66546  -0.63145  -0.58548
 Alpha  occ. eigenvalues --   -0.56919  -0.54654  -0.53379  -0.50271  -0.48688
 Alpha  occ. eigenvalues --   -0.47031  -0.45460  -0.44049  -0.41258  -0.39998
 Alpha  occ. eigenvalues --   -0.39764  -0.38212  -0.36425  -0.34901  -0.33666
 Alpha  occ. eigenvalues --   -0.32838  -0.30838  -0.30674  -0.29284  -0.27373
 Alpha  occ. eigenvalues --   -0.25990  -0.24099  -0.22427  -0.18164  -0.17912
 Alpha  occ. eigenvalues --   -0.11934  -0.10376  -0.05494  -0.02330  -0.01905
 Alpha  occ. eigenvalues --    0.01089   0.02352   0.04815
 Alpha virt. eigenvalues --    0.32581   0.35354   0.39738   0.42192   0.44446
 Alpha virt. eigenvalues --    0.45564   0.47285   0.47656   0.49182   0.51746
 Alpha virt. eigenvalues --    0.52183   0.53370   0.57317   0.58311   0.60895
 Alpha virt. eigenvalues --    0.61636   0.63182   0.64336   0.66504   0.68888
 Alpha virt. eigenvalues --    0.70256   0.72325   0.72753   0.75161   0.76395
 Alpha virt. eigenvalues --    0.78899   0.81756   0.92019   0.94533   0.95530
 Alpha virt. eigenvalues --    0.97084   0.97983   0.99343   1.00755   1.01858
 Alpha virt. eigenvalues --    1.02488   1.03133   1.04734   1.05794   1.07160
 Alpha virt. eigenvalues --    1.07741   1.08936   1.10950   1.11567   1.14318
 Alpha virt. eigenvalues --    1.17910   1.20041   1.22382   1.23628   1.25242
 Alpha virt. eigenvalues --    1.26450   1.26894   1.28746   1.30231   1.31814
 Alpha virt. eigenvalues --    1.32344   1.34692   1.35147   1.36564   1.37021
 Alpha virt. eigenvalues --    1.38668   1.39749   1.40551   1.41465   1.43285
 Alpha virt. eigenvalues --    1.44912   1.46037   1.46783   1.48586   1.48927
 Alpha virt. eigenvalues --    1.49747   1.50214   1.52949   1.54917   1.56098
 Alpha virt. eigenvalues --    1.58127   1.60449   1.60864   1.61568   1.64069
 Alpha virt. eigenvalues --    1.69443   1.71120   1.72306   1.73196   1.74436
 Alpha virt. eigenvalues --    1.76540   1.77715   1.78039   1.78606   1.81120
 Alpha virt. eigenvalues --    1.81731   1.83496   1.87144   1.88032   1.89728
 Alpha virt. eigenvalues --    1.91997   1.94760   1.96207   1.98024   1.99564
 Alpha virt. eigenvalues --    2.00847   2.02438   2.04511   2.06475   2.09072
 Alpha virt. eigenvalues --    2.09481   2.13443   2.14816   2.16018   2.17267
 Alpha virt. eigenvalues --    2.18337   2.21164   2.24263   2.25688   2.26524
 Alpha virt. eigenvalues --    2.27272   2.29619   2.31029   2.32505   2.35449
 Alpha virt. eigenvalues --    2.36267   2.38572   2.42370   2.43254   2.44337
 Alpha virt. eigenvalues --    2.45541   2.50802   2.51355   2.52322   2.52954
 Alpha virt. eigenvalues --    2.54600   2.56336   2.57496   2.58449   2.58806
 Alpha virt. eigenvalues --    2.60018   2.61341   2.61672   2.63019   2.63182
 Alpha virt. eigenvalues --    2.65107   2.67196   2.69689   2.70464   2.70730
 Alpha virt. eigenvalues --    2.75076   2.79926   2.80917   2.84077   2.85566
 Alpha virt. eigenvalues --    2.86409   2.89934   2.92159   2.94171   2.94936
 Alpha virt. eigenvalues --    2.96850   2.98365   2.98858   3.01460   3.03530
 Alpha virt. eigenvalues --    3.03976   3.05330   3.07107   3.12201   3.13157
 Alpha virt. eigenvalues --    3.15545   3.20130   3.22517   3.25084   3.25929
 Alpha virt. eigenvalues --    3.32202   3.38947   3.41920   3.43482   3.43755
 Alpha virt. eigenvalues --    3.47411   3.51084   3.54698   3.56487   3.61607
 Alpha virt. eigenvalues --    3.64610   3.67355   4.29648   4.34112   4.38264
 Alpha virt. eigenvalues --    4.42818   4.54223   4.60263   4.61554   4.71420
 Alpha virt. eigenvalues --    4.73783   4.84928   4.91812   4.98213   5.06482
 Alpha virt. eigenvalues --    5.17972   5.29975   5.39022
          Condensed to atoms (all electrons):
               1          2          3          4          5          6
     1  O    8.380510   0.218542  -0.049124   0.000828   0.001514  -0.000008
     2  C    0.218542   4.863875   0.373291  -0.063624  -0.070820   0.002109
     3  C   -0.049124   0.373291   4.477882   0.234972   0.315960  -0.028669
     4  O    0.000828  -0.063624   0.234972   8.435154  -0.043849  -0.002515
     5  C    0.001514  -0.070820   0.315960  -0.043849   5.041073   0.171378
     6  O   -0.000008   0.002109  -0.028669  -0.002515   0.171378   8.417792
     7  C   -0.000050   0.005043  -0.067886   0.001996   0.352558  -0.039804
     8  O    0.000000  -0.000056   0.003615  -0.000005  -0.041620   0.000165
     9  C    0.000103   0.001027  -0.035744   0.003387  -0.080772   0.003759
    10  O    0.002628  -0.061419   0.248064  -0.056702  -0.043486   0.000658
    11  C    0.000000  -0.000124   0.001665  -0.000087   0.003682  -0.000055
    12  O    0.000000  -0.000003   0.000142   0.000000  -0.000068   0.000000
    13  P    0.000000  -0.000001   0.000019   0.000000  -0.000013   0.000000
    14  O    0.000000   0.000000   0.000000   0.000000   0.000000   0.000000
    15  O    0.000000   0.000000   0.000000   0.000000   0.000000   0.000000
    16  O    0.000000   0.000000   0.000000   0.000000   0.000000   0.000000
    17  H    0.258465  -0.024491   0.006206  -0.000127  -0.000157   0.000001
    18  H   -0.036093   0.380000  -0.033431   0.003445  -0.000489   0.000124
    19  H   -0.039877   0.380191  -0.040608   0.000954   0.000638   0.000511
    20  H    0.008310  -0.008135  -0.018547   0.254972   0.005878  -0.000074
    21  H    0.000085  -0.004288  -0.049621   0.002385   0.397074  -0.035289
    22  H    0.000001  -0.000301   0.006236   0.000010  -0.027303   0.251649
    23  H    0.000001  -0.000001   0.001196   0.000523  -0.050606   0.001612
    24  H    0.000000  -0.000003   0.000073   0.000002  -0.007006   0.002119
    25  H   -0.000001   0.001040  -0.001523  -0.000193  -0.003706  -0.000022
    26  H    0.000000   0.000005   0.000018  -0.000001  -0.000023   0.000000
    27  H    0.000000   0.000010  -0.000192   0.000008  -0.000253  -0.000001
               7          8          9         10         11         12
     1  O   -0.000050   0.000000   0.000103   0.002628   0.000000   0.000000
     2  C    0.005043  -0.000056   0.001027  -0.061419  -0.000124  -0.000003
     3  C   -0.067886   0.003615  -0.035744   0.248064   0.001665   0.000142
     4  O    0.001996  -0.000005   0.003387  -0.056702  -0.000087   0.000000
     5  C    0.352558  -0.041620  -0.080772  -0.043486   0.003682  -0.000068
     6  O   -0.039804   0.000165   0.003759   0.000658  -0.000055   0.000000
     7  C    5.010909   0.162538   0.308714  -0.037068  -0.046414   0.002136
     8  O    0.162538   8.428431  -0.030845   0.000918   0.001530  -0.000005
     9  C    0.308714  -0.030845   4.995209   0.147814   0.306859  -0.045086
    10  O   -0.037068   0.000918   0.147814   8.515866  -0.038030   0.002880
    11  C   -0.046414   0.001530   0.306859  -0.038030   4.840129   0.228231
    12  O    0.002136  -0.000005  -0.045086   0.002880   0.228231   8.524379
    13  P    0.000315  -0.000008   0.005076  -0.000356  -0.032626   0.165533
    14  O    0.000019   0.000000   0.000369   0.000002  -0.008600  -0.032582
    15  O    0.000000   0.000000  -0.000003   0.000000   0.000048  -0.027252
    16  O   -0.000003   0.000000   0.000326  -0.000001  -0.009501  -0.027834
    17  H    0.000005   0.000000  -0.000004  -0.000207   0.000000   0.000000
    18  H   -0.000379  -0.000012   0.000154   0.000322  -0.000003   0.000001
    19  H   -0.000001  -0.000001  -0.000045   0.003408   0.000005   0.000000
    20  H   -0.000346   0.000001  -0.000053   0.001782  -0.000019   0.000000
    21  H   -0.047358   0.003397   0.002144   0.003569  -0.000112   0.000001
    22  H   -0.006042   0.002491   0.000206  -0.000086  -0.000011   0.000000
    23  H    0.394208  -0.032495  -0.031341   0.001983  -0.001402   0.000007
    24  H   -0.023755   0.249076   0.005390  -0.000106  -0.000242   0.000001
    25  H   -0.056369   0.003486   0.387115  -0.041798  -0.030194   0.002085
    26  H    0.000735   0.000882  -0.046910   0.002675   0.373564  -0.035714
    27  H   -0.004950   0.000216  -0.042340  -0.000963   0.379488  -0.035592
              13         14         15         16         17         18
     1  O    0.000000   0.000000   0.000000   0.000000   0.258465  -0.036093
     2  C   -0.000001   0.000000   0.000000   0.000000  -0.024491   0.380000
     3  C    0.000019   0.000000   0.000000   0.000000   0.006206  -0.033431
     4  O    0.000000   0.000000   0.000000   0.000000  -0.000127   0.003445
     5  C   -0.000013   0.000000   0.000000   0.000000  -0.000157  -0.000489
     6  O    0.000000   0.000000   0.000000   0.000000   0.000001   0.000124
     7  C    0.000315   0.000019   0.000000  -0.000003   0.000005  -0.000379
     8  O   -0.000008   0.000000   0.000000   0.000000   0.000000  -0.000012
     9  C    0.005076   0.000369  -0.000003   0.000326  -0.000004   0.000154
    10  O   -0.000356   0.000002   0.000000  -0.000001  -0.000207   0.000322
    11  C   -0.032626  -0.008600   0.000048  -0.009501   0.000000  -0.000003
    12  O    0.165533  -0.032582  -0.027252  -0.027834   0.000000   0.000001
    13  P   11.915944   0.536772   0.510458   0.477235   0.000000   0.000000
    14  O    0.536772   8.500170  -0.052452  -0.051816   0.000000   0.000000
    15  O    0.510458  -0.052452   8.594016  -0.043416   0.000000   0.000000
    16  O    0.477235  -0.051816  -0.043416   8.644964   0.000000   0.000000
    17  H    0.000000   0.000000   0.000000   0.000000   0.342908  -0.003884
    18  H    0.000000   0.000000   0.000000   0.000000  -0.003884   0.589169
    19  H    0.000000   0.000000   0.000000   0.000000  -0.004115  -0.043929
    20  H    0.000000   0.000000   0.000000   0.000000  -0.000263   0.000262
    21  H    0.000000   0.000000   0.000000   0.000000  -0.000016   0.001902
    22  H    0.000000   0.000000   0.000000   0.000000   0.000000   0.000001
    23  H   -0.000031  -0.000020   0.000000   0.000003   0.000000  -0.000011
    24  H    0.000000   0.000000   0.000000   0.000000   0.000000   0.000001
    25  H   -0.000224  -0.000011  -0.000002   0.000031   0.000001   0.000008
    26  H    0.003246  -0.001577  -0.000004   0.021295   0.000000   0.000000
    27  H   -0.003013   0.018523  -0.000031  -0.001447   0.000000   0.000000
              19         20         21         22         23         24
     1  O   -0.039877   0.008310   0.000085   0.000001   0.000001   0.000000
     2  C    0.380191  -0.008135  -0.004288  -0.000301  -0.000001  -0.000003
     3  C   -0.040608  -0.018547  -0.049621   0.006236   0.001196   0.000073
     4  O    0.000954   0.254972   0.002385   0.000010   0.000523   0.000002
     5  C    0.000638   0.005878   0.397074  -0.027303  -0.050606  -0.007006
     6  O    0.000511  -0.000074  -0.035289   0.251649   0.001612   0.002119
     7  C   -0.000001  -0.000346  -0.047358  -0.006042   0.394208  -0.023755
     8  O   -0.000001   0.000001   0.003397   0.002491  -0.032495   0.249076
     9  C   -0.000045  -0.000053   0.002144   0.000206  -0.031341   0.005390
    10  O    0.003408   0.001782   0.003569  -0.000086   0.001983  -0.000106
    11  C    0.000005  -0.000019  -0.000112  -0.000011  -0.001402  -0.000242
    12  O    0.000000   0.000000   0.000001   0.000000   0.000007   0.000001
    13  P    0.000000   0.000000   0.000000   0.000000  -0.000031   0.000000
    14  O    0.000000   0.000000   0.000000   0.000000  -0.000020   0.000000
    15  O    0.000000   0.000000   0.000000   0.000000   0.000000   0.000000
    16  O    0.000000   0.000000   0.000000   0.000000   0.000003   0.000000
    17  H   -0.004115  -0.000263  -0.000016   0.000000   0.000000   0.000000
    18  H   -0.043929   0.000262   0.001902   0.000001  -0.000011   0.000001
    19  H    0.611141  -0.000071   0.000371  -0.000021  -0.000001  -0.000001
    20  H   -0.000071   0.296721  -0.000109   0.000016   0.000009   0.000000
    21  H    0.000371  -0.000109   0.566572  -0.002306   0.003907   0.000228
    22  H   -0.000021   0.000016  -0.002306   0.360474   0.000315   0.002803
    23  H   -0.000001   0.000009   0.003907   0.000315   0.505682  -0.002842
    24  H   -0.000001   0.000000   0.000228   0.002803  -0.002842   0.366342
    25  H   -0.000029   0.000015   0.000523   0.000006   0.004214  -0.000217
    26  H    0.000000   0.000000   0.000003  -0.000001   0.000190  -0.000004
    27  H    0.000000   0.000015  -0.000012   0.000001   0.004301  -0.000002
              25         26         27
     1  O   -0.000001   0.000000   0.000000
     2  C    0.001040   0.000005   0.000010
     3  C   -0.001523   0.000018  -0.000192
     4  O   -0.000193  -0.000001   0.000008
     5  C   -0.003706  -0.000023  -0.000253
     6  O   -0.000022   0.000000  -0.000001
     7  C   -0.056369   0.000735  -0.004950
     8  O    0.003486   0.000882   0.000216
     9  C    0.387115  -0.046910  -0.042340
    10  O   -0.041798   0.002675  -0.000963
    11  C   -0.030194   0.373564   0.379488
    12  O    0.002085  -0.035714  -0.035592
    13  P   -0.000224   0.003246  -0.003013
    14  O   -0.000011  -0.001577   0.018523
    15  O   -0.000002  -0.000004  -0.000031
    16  O    0.000031   0.021295  -0.001447
    17  H    0.000001   0.000000   0.000000
    18  H    0.000008   0.000000   0.000000
    19  H   -0.000029   0.000000   0.000000
    20  H    0.000015   0.000000   0.000015
    21  H    0.000523   0.000003  -0.000012
    22  H    0.000006  -0.000001   0.000001
    23  H    0.004214   0.000190   0.004301
    24  H   -0.000217  -0.000004  -0.000002
    25  H    0.572283  -0.001585   0.004698
    26  H   -0.001585   0.537602  -0.037958
    27  H    0.004698  -0.037958   0.547705
 Mulliken charges:
               1
     1  O   -0.745835
     2  C    0.008135
     3  C    0.656007
     4  O   -0.771533
     5  C    0.080416
     6  O   -0.745441
     7  C    0.091249
     8  O   -0.751699
     9  C    0.145494
    10  O   -0.652346
    11  C    0.032221
    12  O   -0.721261
    13  P    1.421674
    14  O   -0.908797
    15  O   -0.981362
    16  O   -1.009835
    17  H    0.425678
    18  H    0.142843
    19  H    0.131479
    20  H    0.459637
    21  H    0.156948
    22  H    0.411862
    23  H    0.200600
    24  H    0.408142
    25  H    0.160370
    26  H    0.183562
    27  H    0.171789
 Sum of Mulliken charges =  -2.00000
 Mulliken charges with hydrogens summed into heavy atoms:
               1
     1  O   -0.320156
     2  C    0.282457
     3  C    0.656007
     4  O   -0.311896
     5  C    0.237364
     6  O   -0.333579
     7  C    0.291849
     8  O   -0.343557
     9  C    0.305864
    10  O   -0.652346
    11  C    0.387573
    12  O   -0.721261
    13  P    1.421674
    14  O   -0.908797
    15  O   -0.981362
    16  O   -1.009835
 DipInt: DoE/N= T F RetVal/Mat= T F Init=T NMatP=  1 IDeriv=0 Min/MaxMlt=  0  4
 Entering OneElI...
 OneElI was handed    33370756 working-precision words.
 Multipole integrals L=0 to 4 MinM= 0 MaxM= 0.
 Requested accuracy = 0.1000D-12
 ShPair: Thresh= 1.00D-13 NBox=     0 BxSize= 0.00D+00 RnKept= 1.68D+01
         NSMCal=                 3828 NSMKep=                3146
 PrsmSu:  NPrtUS=   1 ThrOK=F IAlg=1 NPAlg=1 LenDen=           0.
 Prism:   IPart=     0 DynPar=F LinDyn=F Incr=          31.
 PRISM was handed    33079312 working-precision words and  3146 shell-pairs
 IPart=  0 NShTot=        3146 NBatch=          61 AvBLen=        51.6
 PrSmSu:  NxtVal=             32.
 Electronic moments (au):
       -136.00000000        -14.04988693          1.58486119         -1.31869777
      -3831.99728712      -1024.29665871       -360.71930529          5.99081062
          7.03953092          4.19589660      -6247.71566077       -146.24946986
       -336.02353428       2399.69147458       1922.14884885       -555.80678092
        209.17043875         82.28928951        643.27315424        369.98522263
    -170549.81410708     -21594.02332374      -2937.65760759       3250.49305258
       2437.14797705      -2977.19359597         -8.08559793       -602.56514577
        367.81049094     -26609.75545823     -10545.01634100      -2441.98820408
      -2955.40467025      -1109.60338941       -273.68214769
 Electronic spatial extent (au):  <R**2>=           5217.0133
 DipInt: DoE/N= F T RetVal/Mat= T F Init=T NMatP=  1 IDeriv=0 Min/MaxMlt=  0  4
 Nuclear    moments (au):
        134.00000000          0.00000000          0.00000000          0.00000000
       3647.43166994        942.86960814        274.29682690          0.00000000
          0.00000000          0.00000000       5385.28444502        174.62529784
        310.22166127      -2568.42547790      -1873.13350213        496.99631065
       -268.92928875       -101.48519333       -621.33431974       -385.71451451
     151177.04762404      18753.89010706       1718.81851891      -2575.84963788
      -1848.03555071       2944.65725428        181.73796273        502.83406199
       -343.15491800      23732.57940205       7814.16355148       1752.98862044
       3065.98926154       1220.89452347        414.81511248
 Total      moments (au):
         -2.00000000        -14.04988693          1.58486119         -1.31869777
       -184.56561717        -81.42705058        -86.42247838          5.99081062
          7.03953092          4.19589660       -862.43121575         28.37582798
        -25.80187301       -168.73400332         49.01534672        -58.81047027
        -59.75885000        -19.19590382         21.93883450        -15.72929188
     -19372.76648304      -2840.13321668      -1218.83908868        674.64341470
        589.11242633        -32.53634168        173.65236480        -99.73108377
         24.65557294      -2877.17605618      -2730.85278952       -688.99958364
        110.58459129        111.29113406        141.13296479
 Traceless Quadrup. (au):
        -67.09390180         36.04466480         31.04923699          5.99081062
          7.03953092          4.19589660
 Charge=             -2.0000 electrons
 Dipole moment (field-independent basis, Debye):
    X=            -35.7112    Y=              4.0283    Z=             -3.3518  Tot=             36.0937
 Quadrupole moment (field-independent basis, Debye-Ang):
   XX=           -248.2471   YY=           -109.5222   ZZ=           -116.2412
   XY=              8.0578   XZ=              9.4684   YZ=              5.6436
 Traceless Quadrupole moment (field-independent basis, Debye-Ang):
   XX=            -90.2436   YY=             48.4813   ZZ=             41.7623
   XY=              8.0578   XZ=              9.4684   YZ=              5.6436
 Octapole moment (field-independent basis, Debye-Ang**2):
  XXX=           -613.8453  YYY=             20.1968  ZZZ=            -18.3648  XYY=           -120.0984
  XXY=             34.8872  XXZ=            -41.8590  XZZ=            -42.5340  YZZ=            -13.6629
  YYZ=             15.6152  XYZ=            -11.1955
 Hexadecapole moment (field-independent basis, Debye-Ang**3):
 XXXX=          -7296.7123 YYYY=          -1069.7303 ZZZZ=           -459.0732 XXXY=            254.1030
 XXXZ=            221.8880 YYYX=            -12.2547 YYYZ=             65.4058 ZZZX=            -37.5635
 ZZZY=              9.2865 XXYY=          -1083.6824 XXZZ=          -1028.5700 YYZZ=           -259.5103
 XXYZ=             41.6515 YYXZ=             41.9176 ZZXY=             53.1574
 N-N= 1.376200489466D+03 E-N=-5.744955541239D+03  KE= 1.245276687916D+03
 Entering OneElI...
 OneElI was handed    33405326 working-precision words.
 Calculate electrostatic properties
    NBasis =   266  MinDer = 0  MaxDer = 0
    NGrid  =    27  NMatD  =   1
 Requested accuracy = 0.1000D-12
 ShPair: Thresh= 1.00D-13 NBox=     0 BxSize= 0.00D+00 RnKept= 1.61D+01
         NSMCal=                 3828 NSMKep=                2824
 PrsmSu:  NPrtUS=   1 ThrOK=F IAlg=1 NPAlg=1 LenDen=           0.
 Prism:   IPart=     0 DynPar=F LinDyn=F Incr=         512.
 PRISM was handed    33140535 working-precision words and  2824 shell-pairs
 IPart=  0 NShTot=       76248 NBatch=        2824 AvBLen=        27.0
 PrSmSu:  NxtVal=            513.
 --------------------------------------------------------
       Center         ----      EFG at Nuclei      ----
                      3XX-RR        3YY-RR        3ZZ-RR
 --------------------------------------------------------
     1   Atom        0.915465     -1.610562      0.695097
     2   Atom        0.145183     -0.310436      0.165253
     3   Atom       -0.099863      0.252517     -0.152654
     4   Atom        1.639319     -0.768500     -0.870819
     5   Atom       -0.008530      0.100506     -0.091975
     6   Atom        0.909311     -1.318962      0.409652
     7   Atom        0.138437     -0.188738      0.050302
     8   Atom        0.808834     -1.276494      0.467660
     9   Atom        0.216870     -0.353673      0.136803
    10   Atom       -1.433338     -0.100036      1.533374
    11   Atom       -0.129880     -0.029137      0.159016
    12   Atom       -0.791693     -0.208861      1.000553
    13   Atom       -0.587370      0.188998      0.398372
    14   Atom        0.311338      0.529955     -0.841293
    15   Atom       -0.402259     -0.241936      0.644195
    16   Atom        0.073828     -0.707175      0.633347
    17   Atom        0.022625     -0.000033     -0.022592
    18   Atom        0.142324      0.113462     -0.255786
    19   Atom       -0.273615      0.125785      0.147831
    20   Atom        0.220024     -0.404675      0.184650
    21   Atom        0.086502      0.139097     -0.225599
    22   Atom        0.231095     -0.434001      0.202906
    23   Atom        0.133948      0.117620     -0.251568
    24   Atom       -0.007624     -0.099388      0.107012
    25   Atom        0.154380      0.143068     -0.297448
    26   Atom        0.092524     -0.197711      0.105188
    27   Atom        0.140906      0.148445     -0.289352
 --------------------------------------------------------
                        XY            XZ            YZ
 --------------------------------------------------------
     1   Atom       -0.276744     -1.213103     -0.455352
     2   Atom        0.130980     -0.015331      0.110594
     3   Atom        0.043570      0.117786      0.100302
     4   Atom        0.462923      0.446189      0.966487
     5   Atom        0.160171      0.215110     -0.148723
     6   Atom        0.889962      1.212373     -0.209996
     7   Atom       -0.085078     -0.015804      0.279937
     8   Atom        1.135498      0.872007      0.513300
     9   Atom       -0.151616      0.152208      0.119821
    10   Atom       -0.485635      0.811165      0.726757
    11   Atom        0.201049     -0.011556     -0.150972
    12   Atom        1.090744      0.019361     -0.862783
    13   Atom       -0.170606     -0.385506     -0.041887
    14   Atom        0.021537     -0.167448      0.017586
    15   Atom        0.928746      0.217846     -0.322393
    16   Atom       -0.744599      0.155298      0.398307
    17   Atom       -0.203509     -0.260450     -0.224583
    18   Atom       -0.020619      0.085957      0.090869
    19   Atom        0.068849      0.072321     -0.011475
    20   Atom        0.155231     -0.007258      0.092329
    21   Atom        0.028676     -0.153504      0.042933
    22   Atom        0.068744      0.018046      0.125312
    23   Atom       -0.020331     -0.092515     -0.085212
    24   Atom        0.287950      0.193925     -0.176854
    25   Atom       -0.005194     -0.004836      0.012876
    26   Atom       -0.127957      0.046384      0.118802
    27   Atom        0.007093      0.031316     -0.003015
 --------------------------------------------------------


 ---------------------------------------------------------------------------------
              Nuclear Quadrupole Coupling Constant in Principal Axis System
 ---------------------------------------------------------------------------------

       Atom             a.u.   MegaHertz   Gauss  10(-4) cm-1        Axes


 ---------------------------------------------------------------------------------

 No NMR shielding tensors so no spin-rotation constants.
 Leave Link  601 at Mon Apr  3 03:33:58 2017, MaxMem=    33554432 cpu:         0.2
 FitSet:  NAtFit=    27 NAtPot=    27 NAtFrz=     0 MDM=    31 TotChg=  -2.00000
 Merz-Kollman atomic radii used.
 Atom Element Radius
    1     8    1.40
    2     6    1.50
    3     6    1.50
    4     8    1.40
    5     6    1.50
    6     8    1.40
    7     6    1.50
    8     8    1.40
    9     6    1.50
   10     8    1.40
   11     6    1.50
   12     8    1.40
   13    15    1.80
   14     8    1.40
   15     8    1.40
   16     8    1.40
   17     1    1.20
   18     1    1.20
   19     1    1.20
   20     1    1.20
   21     1    1.20
   22     1    1.20
   23     1    1.20
   24     1    1.20
   25     1    1.20
   26     1    1.20
   27     1    1.20
 Generate VDW surfaces: Layer= 4 Dens= 6 Start= 1.400 Inc= 0.200

 **********************************************************************

            Electrostatic Properties Using The SCF Density

 **********************************************************************

       Atomic Center    1 is at  -2.829641 -2.816965 -0.507941
       Atomic Center    2 is at  -3.138693 -1.445752 -0.766489
       Atomic Center    3 is at  -2.303627 -0.552911  0.152402
       Atomic Center    4 is at  -2.585035 -0.866214  1.517616
       Atomic Center    5 is at  -2.627068  0.930171 -0.121744
       Atomic Center    6 is at  -3.518990  1.454084  0.863448
       Atomic Center    7 is at  -1.227778  1.596932 -0.012980
       Atomic Center    8 is at  -1.151374  2.773220 -0.820678
       Atomic Center    9 is at  -0.320482  0.474309 -0.576083
       Atomic Center   10 is at  -0.909921 -0.750964 -0.112631
       Atomic Center   11 is at   1.102760  0.616496 -0.033428
       Atomic Center   12 is at   1.904982 -0.463170 -0.513344
       Atomic Center   13 is at   3.381171 -0.251355  0.091837
       Atomic Center   14 is at   3.314635 -0.262270  1.569749
       Atomic Center   15 is at   4.343516 -1.440397 -0.409677
       Atomic Center   16 is at   3.968559  1.161407 -0.407469
       Atomic Center   17 is at  -3.376803 -3.343714 -1.107654
       Atomic Center   18 is at  -2.910260 -1.211127 -1.806034
       Atomic Center   19 is at  -4.198131 -1.270037 -0.578769
       Atomic Center   20 is at  -2.365161 -1.798847  1.642147
       Atomic Center   21 is at  -3.041069  1.057507 -1.122564
       Atomic Center   22 is at  -3.607179  2.401056  0.685649
       Atomic Center   23 is at  -0.979214  1.819260  1.023811
       Atomic Center   24 is at  -1.736946  3.428296 -0.414998
       Atomic Center   25 is at  -0.314797  0.503571 -1.665736
       Atomic Center   26 is at   1.527337  1.561717 -0.371279
       Atomic Center   27 is at   1.080133  0.597329  1.055205
      ESP Fit Center   28 is at  -3.520040 -3.215567  1.282608
      ESP Fit Center   29 is at  -3.228243 -3.507364  1.282608
      ESP Fit Center   30 is at  -2.829641 -3.614169  1.282608
      ESP Fit Center   31 is at  -2.431039 -3.507364  1.282608
      ESP Fit Center   32 is at  -3.962084 -2.605275  1.077732
      ESP Fit Center   33 is at  -3.962084 -3.028655  1.077732
      ESP Fit Center   34 is at  -3.809142 -3.423446  1.077732
      ESP Fit Center   35 is at  -3.523912 -3.736328  1.077732
      ESP Fit Center   36 is at  -3.144917 -3.925045  1.077732
      ESP Fit Center   37 is at  -2.723343 -3.964110  1.077732
      ESP Fit Center   38 is at  -2.316124 -3.848246  1.077732
      ESP Fit Center   39 is at  -1.978259 -3.593102  1.077732
      ESP Fit Center   40 is at  -4.227204 -2.406604  0.803555
      ESP Fit Center   41 is at  -4.286205 -2.816965  0.803555
      ESP Fit Center   42 is at  -4.227204 -3.227327  0.803555
      ESP Fit Center   43 is at  -4.054981 -3.604443  0.803555
      ESP Fit Center   44 is at  -3.783488 -3.917763  0.803555
      ESP Fit Center   45 is at  -3.434720 -4.141902  0.803555
      ESP Fit Center   46 is at  -3.036932 -4.258703  0.803555
      ESP Fit Center   47 is at  -2.622351 -4.258703  0.803555
      ESP Fit Center   48 is at  -2.224563 -4.141902  0.803555
      ESP Fit Center   49 is at  -1.875795 -3.917763  0.803555
      ESP Fit Center   50 is at  -1.604302 -3.604443  0.803555
      ESP Fit Center   51 is at  -1.432079 -3.227327  0.803555
      ESP Fit Center   52 is at  -1.132232 -2.816965  0.472059
      ESP Fit Center   53 is at  -4.513667 -2.604223  0.472059
      ESP Fit Center   54 is at  -4.513667 -3.029707  0.472059
      ESP Fit Center   55 is at  -4.407853 -3.441823  0.472059
      ESP Fit Center   56 is at  -4.202875 -3.814678  0.472059
      ESP Fit Center   57 is at  -3.911611 -4.124842  0.472059
      ESP Fit Center   58 is at  -3.552363 -4.352827  0.472059
      ESP Fit Center   59 is at  -3.147704 -4.484309  0.472059
      ESP Fit Center   60 is at  -2.723060 -4.511026  0.472059
      ESP Fit Center   61 is at  -2.305113 -4.431298  0.472059
      ESP Fit Center   62 is at  -1.920124 -4.250136  0.472059
      ESP Fit Center   63 is at  -1.592283 -3.978922  0.472059
      ESP Fit Center   64 is at  -1.342190 -3.634699  0.472059
      ESP Fit Center   65 is at  -1.185559 -3.239094  0.472059
      ESP Fit Center   66 is at  -0.965571 -2.816965  0.097732
      ESP Fit Center   67 is at  -4.693712 -2.816965  0.097732
      ESP Fit Center   68 is at  -4.646976 -3.231760  0.097732
      ESP Fit Center   69 is at  -3.638431 -4.496435  0.097732
      ESP Fit Center   70 is at  -3.244436 -4.634300  0.097732
      ESP Fit Center   71 is at  -2.829641 -4.681036  0.097732
      ESP Fit Center   72 is at  -2.414847 -4.634300  0.097732
      ESP Fit Center   73 is at  -2.020851 -4.496435  0.097732
      ESP Fit Center   74 is at  -1.667412 -4.274354  0.097732
      ESP Fit Center   75 is at  -1.372252 -3.979194  0.097732
      ESP Fit Center   76 is at  -1.150172 -3.625755  0.097732
      ESP Fit Center   77 is at  -1.012307 -3.231760  0.097732
      ESP Fit Center   78 is at  -0.880378 -2.816965 -0.303065
      ESP Fit Center   79 is at  -2.724110 -4.763369 -0.303065
      ESP Fit Center   80 is at  -2.308158 -4.695177 -0.303065
      ESP Fit Center   81 is at  -1.916590 -4.539162 -0.303065
      ESP Fit Center   82 is at  -1.567715 -4.302619 -0.303065
      ESP Fit Center   83 is at  -1.277847 -3.996609 -0.303065
      ESP Fit Center   84 is at  -1.060538 -3.635439 -0.303065
      ESP Fit Center   85 is at  -0.925951 -3.235999 -0.303065
      ESP Fit Center   86 is at  -0.880378 -2.816965 -0.712817
      ESP Fit Center   87 is at  -2.308158 -4.695177 -0.712817
      ESP Fit Center   88 is at  -1.916590 -4.539162 -0.712817
      ESP Fit Center   89 is at  -1.567715 -4.302619 -0.712817
      ESP Fit Center   90 is at  -1.277847 -3.996609 -0.712817
      ESP Fit Center   91 is at  -1.060538 -3.635439 -0.712817
      ESP Fit Center   92 is at  -0.925951 -3.235999 -0.712817
      ESP Fit Center   93 is at  -0.965571 -2.816965 -1.113614
      ESP Fit Center   94 is at  -2.020851 -4.496435 -1.113614
      ESP Fit Center   95 is at  -1.667412 -4.274354 -1.113614
      ESP Fit Center   96 is at  -1.372252 -3.979194 -1.113614
      ESP Fit Center   97 is at  -1.150172 -3.625755 -1.113614
      ESP Fit Center   98 is at  -1.012307 -3.231760 -1.113614
      ESP Fit Center   99 is at  -1.132232 -2.816965 -1.487941
      ESP Fit Center  100 is at  -1.185559 -2.394837 -1.487941
      ESP Fit Center  101 is at  -1.920124 -4.250136 -1.487941
      ESP Fit Center  102 is at  -1.592283 -3.978922 -1.487941
      ESP Fit Center  103 is at  -1.342190 -3.634699 -1.487941
      ESP Fit Center  104 is at  -1.185559 -3.239094 -1.487941
      ESP Fit Center  105 is at  -1.373077 -2.816965 -1.819437
      ESP Fit Center  106 is at  -1.432079 -2.406604 -1.819437
      ESP Fit Center  107 is at  -1.875795 -3.917763 -1.819437
      ESP Fit Center  108 is at  -1.604302 -3.604443 -1.819437
      ESP Fit Center  109 is at  -1.432079 -3.227327 -1.819437
      ESP Fit Center  110 is at  -1.677582 -2.816965 -2.093614
      ESP Fit Center  111 is at  -1.755378 -2.400793 -2.093614
      ESP Fit Center  112 is at  -1.978259 -3.593102 -2.093614
      ESP Fit Center  113 is at  -1.755378 -3.233137 -2.093614
      ESP Fit Center  114 is at  -2.032437 -2.816965 -2.298490
      ESP Fit Center  115 is at  -2.139243 -3.215567 -2.298490
      ESP Fit Center  116 is at  -2.422134 -2.816965 -2.425110
      ESP Fit Center  117 is at  -4.130639 -2.059939  0.979598
      ESP Fit Center  118 is at  -4.130583 -0.008751 -1.933186
      ESP Fit Center  119 is at  -4.445657 -0.287883 -1.933186
      ESP Fit Center  120 is at  -4.684776 -2.257199 -1.933186
      ESP Fit Center  121 is at  -1.592610 -2.257199 -1.933186
      ESP Fit Center  122 is at  -4.563467 -1.027401 -2.251413
      ESP Fit Center  123 is at  -4.623617 -1.445752 -2.251413
      ESP Fit Center  124 is at  -4.563467 -1.864104 -2.251413
      ESP Fit Center  125 is at  -4.387891 -2.248563 -2.251413
      ESP Fit Center  126 is at  -2.585035 -0.866214  3.477616
      ESP Fit Center  127 is at  -2.177528 -0.866214  3.434786
      ESP Fit Center  128 is at  -2.381282 -0.513302  3.434786
      ESP Fit Center  129 is at  -2.788788 -0.513302  3.434786
      ESP Fit Center  130 is at  -2.992542 -0.866214  3.434786
      ESP Fit Center  131 is at  -2.788788 -1.219125  3.434786
      ESP Fit Center  132 is at  -2.381282 -1.219125  3.434786
      ESP Fit Center  133 is at  -1.787831 -0.866214  3.308165
      ESP Fit Center  134 is at  -1.894636 -0.467612  3.308165
      ESP Fit Center  135 is at  -2.186433 -0.175815  3.308165
      ESP Fit Center  136 is at  -2.585035 -0.069010  3.308165
      ESP Fit Center  137 is at  -2.983637 -0.175815  3.308165
      ESP Fit Center  138 is at  -3.275434 -0.467612  3.308165
      ESP Fit Center  139 is at  -3.382239 -0.866214  3.308165
      ESP Fit Center  140 is at  -3.275434 -1.264815  3.308165
      ESP Fit Center  141 is at  -2.983637 -1.556612  3.308165
      ESP Fit Center  142 is at  -2.585035 -1.663417  3.308165
      ESP Fit Center  143 is at  -2.186433 -1.556612  3.308165
      ESP Fit Center  144 is at  -1.894636 -1.264815  3.308165
      ESP Fit Center  145 is at  -1.432976 -0.866214  3.103290
      ESP Fit Center  146 is at  -1.510772 -0.450042  3.103290
      ESP Fit Center  147 is at  -1.733653 -0.090076  3.103290
      ESP Fit Center  148 is at  -2.071518  0.165067  3.103290
      ESP Fit Center  149 is at  -2.478736  0.280931  3.103290
      ESP Fit Center  150 is at  -2.900311  0.241866  3.103290
      ESP Fit Center  151 is at  -3.279306  0.053149  3.103290
      ESP Fit Center  152 is at  -3.564535 -0.259733  3.103290
      ESP Fit Center  153 is at  -3.717478 -0.654523  3.103290
      ESP Fit Center  154 is at  -3.717478 -1.077904  3.103290
      ESP Fit Center  155 is at  -3.564535 -1.472694  3.103290
      ESP Fit Center  156 is at  -3.279306 -1.785577  3.103290
      ESP Fit Center  157 is at  -1.510772 -1.282385  3.103290
      ESP Fit Center  158 is at  -1.128471 -0.866214  2.829112
      ESP Fit Center  159 is at  -1.187472 -0.455852  2.829112
      ESP Fit Center  160 is at  -1.359696 -0.078736  2.829112
      ESP Fit Center  161 is at  -1.631189  0.234584  2.829112
      ESP Fit Center  162 is at  -1.979957  0.458724  2.829112
      ESP Fit Center  163 is at  -2.377744  0.575525  2.829112
      ESP Fit Center  164 is at  -2.792326  0.575525  2.829112
      ESP Fit Center  165 is at  -3.190114  0.458724  2.829112
      ESP Fit Center  166 is at  -3.538881  0.234584  2.829112
      ESP Fit Center  167 is at  -3.810375 -0.078736  2.829112
      ESP Fit Center  168 is at  -3.982598 -0.455852  2.829112
      ESP Fit Center  169 is at  -4.041599 -0.866214  2.829112
      ESP Fit Center  170 is at  -3.982598 -1.276575  2.829112
      ESP Fit Center  171 is at  -3.810375 -1.653691  2.829112
      ESP Fit Center  172 is at  -1.187472 -1.276575  2.829112
      ESP Fit Center  173 is at  -0.887625 -0.866214  2.497616
      ESP Fit Center  174 is at  -0.940952 -0.444085  2.497616
      ESP Fit Center  175 is at  -1.097583 -0.048480  2.497616
      ESP Fit Center  176 is at  -1.347677  0.295743  2.497616
      ESP Fit Center  177 is at  -1.675517  0.566957  2.497616
      ESP Fit Center  178 is at  -2.060507  0.748119  2.497616
      ESP Fit Center  179 is at  -2.478454  0.827847  2.497616
      ESP Fit Center  180 is at  -3.958268  0.131499  2.497616
      ESP Fit Center  181 is at  -4.163247 -0.241355  2.497616
      ESP Fit Center  182 is at  -4.269060 -0.653472  2.497616
      ESP Fit Center  183 is at  -4.269060 -1.078955  2.497616
      ESP Fit Center  184 is at  -4.163247 -1.491072  2.497616
      ESP Fit Center  185 is at  -3.958268 -1.863926  2.497616
      ESP Fit Center  186 is at  -0.940952 -1.288342  2.497616
      ESP Fit Center  187 is at  -0.720964 -0.866214  2.123290
      ESP Fit Center  188 is at  -0.767700 -0.451419  2.123290
      ESP Fit Center  189 is at  -0.905565 -0.057424  2.123290
      ESP Fit Center  190 is at  -1.127646  0.296016  2.123290
      ESP Fit Center  191 is at  -1.422806  0.591176  2.123290
      ESP Fit Center  192 is at  -1.776245  0.813256  2.123290
      ESP Fit Center  193 is at  -4.264505 -0.057424  2.123290
      ESP Fit Center  194 is at  -4.402370 -0.451419  2.123290
      ESP Fit Center  195 is at  -4.449106 -0.866214  2.123290
      ESP Fit Center  196 is at  -4.402370 -1.281008  2.123290
      ESP Fit Center  197 is at  -4.264505 -1.675004  2.123290
      ESP Fit Center  198 is at  -4.042424 -2.028443  2.123290
      ESP Fit Center  199 is at  -0.767700 -1.281008  2.123290
      ESP Fit Center  200 is at  -0.815932 -0.047739  1.722492
      ESP Fit Center  201 is at  -4.432260 -0.243811  1.722492
      ESP Fit Center  202 is at  -4.522871 -0.655461  1.722492
      ESP Fit Center  203 is at  -4.522871 -1.076966  1.722492
      ESP Fit Center  204 is at  -4.432260 -1.488616  1.722492
      ESP Fit Center  205 is at  -4.255275 -1.871164  1.722492
      ESP Fit Center  206 is at  -4.000191 -2.206721  1.722492
      ESP Fit Center  207 is at  -4.432260 -0.243811  1.312740
      ESP Fit Center  208 is at  -4.522871 -0.655461  1.312740
      ESP Fit Center  209 is at  -4.522871 -1.076966  1.312740
      ESP Fit Center  210 is at  -4.432260 -1.488616  1.312740
      ESP Fit Center  211 is at  -4.255275 -1.871164  1.312740
      ESP Fit Center  212 is at  -4.000191 -2.206721  1.312740
      ESP Fit Center  213 is at  -4.402370 -0.451419  0.911943
      ESP Fit Center  214 is at  -3.518990  1.454084  2.823448
      ESP Fit Center  215 is at  -3.111484  1.454084  2.780618
      ESP Fit Center  216 is at  -3.315237  1.806995  2.780618
      ESP Fit Center  217 is at  -3.722744  1.806995  2.780618
      ESP Fit Center  218 is at  -3.926497  1.454084  2.780618
      ESP Fit Center  219 is at  -3.722744  1.101172  2.780618
      ESP Fit Center  220 is at  -3.315237  1.101172  2.780618
      ESP Fit Center  221 is at  -2.721787  1.454084  2.653997
      ESP Fit Center  222 is at  -2.828592  1.852686  2.653997
      ESP Fit Center  223 is at  -3.120389  2.144483  2.653997
      ESP Fit Center  224 is at  -3.518990  2.251288  2.653997
      ESP Fit Center  225 is at  -3.917592  2.144483  2.653997
      ESP Fit Center  226 is at  -4.209389  1.852686  2.653997
      ESP Fit Center  227 is at  -4.316194  1.454084  2.653997
      ESP Fit Center  228 is at  -4.209389  1.055482  2.653997
      ESP Fit Center  229 is at  -3.917592  0.763685  2.653997
      ESP Fit Center  230 is at  -3.518990  0.656880  2.653997
      ESP Fit Center  231 is at  -3.120389  0.763685  2.653997
      ESP Fit Center  232 is at  -2.828592  1.055482  2.653997
      ESP Fit Center  233 is at  -2.366931  1.454084  2.449122
      ESP Fit Center  234 is at  -2.444727  1.870256  2.449122
      ESP Fit Center  235 is at  -2.667608  2.230221  2.449122
      ESP Fit Center  236 is at  -3.005474  2.485365  2.449122
      ESP Fit Center  237 is at  -3.412692  2.601228  2.449122
      ESP Fit Center  238 is at  -3.834266  2.562164  2.449122
      ESP Fit Center  239 is at  -4.213261  2.373447  2.449122
      ESP Fit Center  240 is at  -4.498491  2.060565  2.449122
      ESP Fit Center  241 is at  -4.651434  1.665774  2.449122
      ESP Fit Center  242 is at  -4.651434  1.242393  2.449122
      ESP Fit Center  243 is at  -4.498491  0.847603  2.449122
      ESP Fit Center  244 is at  -4.213261  0.534721  2.449122
      ESP Fit Center  245 is at  -3.834266  0.346004  2.449122
      ESP Fit Center  246 is at  -2.444727  1.037912  2.449122
      ESP Fit Center  247 is at  -2.293651  2.241562  2.174944
      ESP Fit Center  248 is at  -2.565144  2.554881  2.174944
      ESP Fit Center  249 is at  -2.913912  2.779021  2.174944
      ESP Fit Center  250 is at  -4.472837  2.554881  2.174944
      ESP Fit Center  251 is at  -4.744330  2.241562  2.174944
      ESP Fit Center  252 is at  -4.916553  1.864445  2.174944
      ESP Fit Center  253 is at  -4.975554  1.454084  2.174944
      ESP Fit Center  254 is at  -4.916553  1.043722  2.174944
      ESP Fit Center  255 is at  -4.744330  0.666606  2.174944
      ESP Fit Center  256 is at  -4.472837  0.353286  2.174944
      ESP Fit Center  257 is at  -2.121428  1.043722  2.174944
      ESP Fit Center  258 is at  -2.281632  2.616041  1.843448
      ESP Fit Center  259 is at  -4.892224  2.451796  1.843448
      ESP Fit Center  260 is at  -5.097202  2.078942  1.843448
      ESP Fit Center  261 is at  -5.203016  1.666826  1.843448
      ESP Fit Center  262 is at  -5.203016  1.241342  1.843448
      ESP Fit Center  263 is at  -5.097202  0.829226  1.843448
      ESP Fit Center  264 is at  -4.892224  0.456371  1.843448
      ESP Fit Center  265 is at  -4.600960  0.146207  1.843448
      ESP Fit Center  266 is at  -5.198460  2.262874  1.469122
      ESP Fit Center  267 is at  -5.336325  1.868879  1.469122
      ESP Fit Center  268 is at  -5.383061  1.454084  1.469122
      ESP Fit Center  269 is at  -5.336325  1.039289  1.469122
      ESP Fit Center  270 is at  -5.198460  0.645294  1.469122
      ESP Fit Center  271 is at  -4.976380  0.291855  1.469122
      ESP Fit Center  272 is at  -4.681220 -0.003305  1.469122
      ESP Fit Center  273 is at  -5.366216  2.076486  1.068324
      ESP Fit Center  274 is at  -5.456827  1.664836  1.068324
      ESP Fit Center  275 is at  -5.456827  1.243331  1.068324
      ESP Fit Center  276 is at  -5.366216  0.831681  1.068324
      ESP Fit Center  277 is at  -5.189230  0.449134  1.068324
      ESP Fit Center  278 is at  -4.934147  0.113577  1.068324
      ESP Fit Center  279 is at  -4.612892 -0.159300  1.068324
      ESP Fit Center  280 is at  -5.366216  2.076486  0.658573
      ESP Fit Center  281 is at  -5.456827  1.664836  0.658573
      ESP Fit Center  282 is at  -5.456827  1.243331  0.658573
      ESP Fit Center  283 is at  -5.366216  0.831681  0.658573
      ESP Fit Center  284 is at  -5.189230  0.449134  0.658573
      ESP Fit Center  285 is at  -4.934147  0.113577  0.658573
      ESP Fit Center  286 is at  -4.612892 -0.159300  0.658573
      ESP Fit Center  287 is at  -5.336325  1.868879  0.257775
      ESP Fit Center  288 is at  -5.383061  1.454084  0.257775
      ESP Fit Center  289 is at  -5.336325  1.039289  0.257775
      ESP Fit Center  290 is at  -5.198460  0.645294  0.257775
      ESP Fit Center  291 is at  -4.976380  0.291855  0.257775
      ESP Fit Center  292 is at  -5.097202  2.078942 -0.116552
      ESP Fit Center  293 is at  -5.203016  1.666826 -0.116552
      ESP Fit Center  294 is at  -5.203016  1.241342 -0.116552
      ESP Fit Center  295 is at  -5.097202  0.829226 -0.116552
      ESP Fit Center  296 is at  -4.892224  0.456371 -0.116552
      ESP Fit Center  297 is at  -4.916553  1.864445 -0.448048
      ESP Fit Center  298 is at  -4.975554  1.454084 -0.448048
      ESP Fit Center  299 is at  -4.916553  1.043722 -0.448048
      ESP Fit Center  300 is at  -4.744330  0.666606 -0.448048
      ESP Fit Center  301 is at  -4.498491  2.060565 -0.722225
      ESP Fit Center  302 is at  -4.651434  1.665774 -0.722225
      ESP Fit Center  303 is at   0.462707  2.773544  0.396710
      ESP Fit Center  304 is at  -0.299992  3.549357  0.764995
      ESP Fit Center  305 is at   0.246189  3.183582  0.490818
      ESP Fit Center  306 is at   0.073965  3.560698  0.490818
      ESP Fit Center  307 is at  -0.197528  3.874018  0.490818
      ESP Fit Center  308 is at   0.492708  3.195349  0.159322
      ESP Fit Center  309 is at   0.336077  3.590954  0.159322
      ESP Fit Center  310 is at   0.085984  3.935177  0.159322
      ESP Fit Center  311 is at  -0.241857  4.206391  0.159322
      ESP Fit Center  312 is at   0.665960  3.188015 -0.215005
      ESP Fit Center  313 is at   0.528096  3.582010 -0.215005
      ESP Fit Center  314 is at   0.306015  3.935449 -0.215005
      ESP Fit Center  315 is at   0.010855  4.230609 -0.215005
      ESP Fit Center  316 is at  -0.342584  4.452690 -0.215005
      ESP Fit Center  317 is at   0.752316  3.192254 -0.615802
      ESP Fit Center  318 is at   0.617729  3.591694 -0.615802
      ESP Fit Center  319 is at   0.400420  3.952864 -0.615802
      ESP Fit Center  320 is at   0.110552  4.258874 -0.615802
      ESP Fit Center  321 is at  -0.238323  4.495417 -0.615802
      ESP Fit Center  322 is at   0.752316  3.192254 -1.025554
      ESP Fit Center  323 is at   0.617729  3.591694 -1.025554
      ESP Fit Center  324 is at   0.400420  3.952864 -1.025554
      ESP Fit Center  325 is at   0.110552  4.258874 -1.025554
      ESP Fit Center  326 is at  -0.238323  4.495417 -1.025554
      ESP Fit Center  327 is at  -0.629891  4.651432 -1.025554
      ESP Fit Center  328 is at   0.712697  2.773220 -1.426351
      ESP Fit Center  329 is at   0.665960  3.188015 -1.426351
      ESP Fit Center  330 is at   0.528096  3.582010 -1.426351
      ESP Fit Center  331 is at   0.306015  3.935449 -1.426351
      ESP Fit Center  332 is at   0.010855  4.230609 -1.426351
      ESP Fit Center  333 is at  -0.342584  4.452690 -1.426351
      ESP Fit Center  334 is at  -0.736579  4.590555 -1.426351
      ESP Fit Center  335 is at  -1.151374  4.637291 -1.426351
      ESP Fit Center  336 is at  -3.015445  2.773220 -1.426351
      ESP Fit Center  337 is at   0.546036  2.773220 -1.800678
      ESP Fit Center  338 is at   0.492708  3.195349 -1.800678
      ESP Fit Center  339 is at   0.336077  3.590954 -1.800678
      ESP Fit Center  340 is at   0.085984  3.935177 -1.800678
      ESP Fit Center  341 is at  -0.241857  4.206391 -1.800678
      ESP Fit Center  342 is at  -0.626846  4.387553 -1.800678
      ESP Fit Center  343 is at  -1.044793  4.467280 -1.800678
      ESP Fit Center  344 is at  -1.469437  4.440564 -1.800678
      ESP Fit Center  345 is at  -2.729586  3.398078 -1.800678
      ESP Fit Center  346 is at  -2.835399  2.985962 -1.800678
      ESP Fit Center  347 is at   0.492708  2.351091 -1.800678
      ESP Fit Center  348 is at   0.305190  2.773220 -2.132174
      ESP Fit Center  349 is at   0.246189  3.183582 -2.132174
      ESP Fit Center  350 is at   0.073965  3.560698 -2.132174
      ESP Fit Center  351 is at  -0.197528  3.874018 -2.132174
      ESP Fit Center  352 is at  -0.546296  4.098157 -2.132174
      ESP Fit Center  353 is at  -0.944084  4.214958 -2.132174
      ESP Fit Center  354 is at  -1.358665  4.214958 -2.132174
      ESP Fit Center  355 is at  -1.756453  4.098157 -2.132174
      ESP Fit Center  356 is at  -2.105221  3.874018 -2.132174
      ESP Fit Center  357 is at  -2.376714  3.560698 -2.132174
      ESP Fit Center  358 is at  -2.548937  3.183582 -2.132174
      ESP Fit Center  359 is at  -2.607938  2.773220 -2.132174
      ESP Fit Center  360 is at  -2.548937  2.362859 -2.132174
      ESP Fit Center  361 is at   0.246189  2.362859 -2.132174
      ESP Fit Center  362 is at   0.000685  2.773220 -2.406351
      ESP Fit Center  363 is at  -0.077111  3.189392 -2.406351
      ESP Fit Center  364 is at  -0.299992  3.549357 -2.406351
      ESP Fit Center  365 is at  -0.637857  3.804501 -2.406351
      ESP Fit Center  366 is at  -1.045076  3.920365 -2.406351
      ESP Fit Center  367 is at  -1.466650  3.881300 -2.406351
      ESP Fit Center  368 is at  -1.845645  3.692583 -2.406351
      ESP Fit Center  369 is at  -2.130875  3.379701 -2.406351
      ESP Fit Center  370 is at  -2.283817  2.984910 -2.406351
      ESP Fit Center  371 is at  -2.283817  2.561530 -2.406351
      ESP Fit Center  372 is at  -2.130875  2.166739 -2.406351
      ESP Fit Center  373 is at  -1.845645  1.853857 -2.406351
      ESP Fit Center  374 is at  -1.466650  1.665140 -2.406351
      ESP Fit Center  375 is at  -0.077111  2.357048 -2.406351
      ESP Fit Center  376 is at  -0.354170  2.773220 -2.611227
      ESP Fit Center  377 is at  -0.460975  3.171822 -2.611227
      ESP Fit Center  378 is at  -0.752772  3.463619 -2.611227
      ESP Fit Center  379 is at  -1.151374  3.570424 -2.611227
      ESP Fit Center  380 is at  -1.549976  3.463619 -2.611227
      ESP Fit Center  381 is at  -1.841773  3.171822 -2.611227
      ESP Fit Center  382 is at  -1.948578  2.773220 -2.611227
      ESP Fit Center  383 is at  -1.841773  2.374618 -2.611227
      ESP Fit Center  384 is at  -1.549976  2.082821 -2.611227
      ESP Fit Center  385 is at  -1.151374  1.976016 -2.611227
      ESP Fit Center  386 is at  -0.752772  2.082821 -2.611227
      ESP Fit Center  387 is at  -0.460975  2.374618 -2.611227
      ESP Fit Center  388 is at  -0.743867  2.773220 -2.737847
      ESP Fit Center  389 is at  -0.947621  3.126131 -2.737847
      ESP Fit Center  390 is at  -1.355128  3.126131 -2.737847
      ESP Fit Center  391 is at  -1.558881  2.773220 -2.737847
      ESP Fit Center  392 is at  -1.355128  2.420309 -2.737847
      ESP Fit Center  393 is at  -0.947621  2.420309 -2.737847
      ESP Fit Center  394 is at  -1.151374  2.773220 -2.780678
      ESP Fit Center  395 is at   0.298689 -1.158310 -1.742780
      ESP Fit Center  396 is at  -0.502414 -0.750964  1.804539
      ESP Fit Center  397 is at  -0.112717 -0.750964  1.677918
      ESP Fit Center  398 is at  -0.219522 -0.352362  1.677918
      ESP Fit Center  399 is at  -0.511319 -0.060565  1.677918
      ESP Fit Center  400 is at  -0.511319 -1.441363  1.677918
      ESP Fit Center  401 is at  -0.219522 -1.149566  1.677918
      ESP Fit Center  402 is at  -0.396404 -1.782245  1.473043
      ESP Fit Center  403 is at  -0.058539 -1.527101  1.473043
      ESP Fit Center  404 is at   0.164342 -1.167136  1.473043
      ESP Fit Center  405 is at  -0.702630 -2.192702  1.198865
      ESP Fit Center  406 is at  -0.304842 -2.075901  1.198865
      ESP Fit Center  407 is at   0.043926 -1.851762  1.198865
      ESP Fit Center  408 is at   0.315419 -1.538442  1.198865
      ESP Fit Center  409 is at   0.487642 -1.161326  1.198865
      ESP Fit Center  410 is at  -0.803340 -2.445025  0.867369
      ESP Fit Center  411 is at  -0.385392 -2.365297  0.867369
      ESP Fit Center  412 is at  -0.000403 -2.184135  0.867369
      ESP Fit Center  413 is at   0.327438 -1.912921  0.867369
      ESP Fit Center  414 is at   0.577531 -1.568698  0.867369
      ESP Fit Center  415 is at  -0.909921 -2.615035  0.493043
      ESP Fit Center  416 is at  -0.495126 -2.568299  0.493043
      ESP Fit Center  417 is at  -0.101131 -2.430434  0.493043
      ESP Fit Center  418 is at   0.252308 -2.208353  0.493043
      ESP Fit Center  419 is at   0.547468 -1.913193  0.493043
      ESP Fit Center  420 is at  -0.804390 -2.697368  0.092245
      ESP Fit Center  421 is at  -0.388438 -2.629176  0.092245
      ESP Fit Center  422 is at   0.003130 -2.473161  0.092245
      ESP Fit Center  423 is at   0.352005 -2.236618  0.092245
      ESP Fit Center  424 is at   0.641874 -1.930608  0.092245
      ESP Fit Center  425 is at  -0.804390 -2.697368 -0.317506
      ESP Fit Center  426 is at  -0.388438 -2.629176 -0.317506
      ESP Fit Center  427 is at   0.003130 -2.473161 -0.317506
      ESP Fit Center  428 is at   0.352005 -2.236618 -0.317506
      ESP Fit Center  429 is at  -0.495126 -2.568299 -0.718304
      ESP Fit Center  430 is at  -0.101131 -2.430434 -0.718304
      ESP Fit Center  431 is at   0.252308 -2.208353 -0.718304
      ESP Fit Center  432 is at   0.547468 -1.913193 -0.718304
      ESP Fit Center  433 is at  -0.803340 -2.445025 -1.092631
      ESP Fit Center  434 is at  -0.385392 -2.365297 -1.092631
      ESP Fit Center  435 is at  -0.000403 -2.184135 -1.092631
      ESP Fit Center  436 is at   0.327438 -1.912921 -1.092631
      ESP Fit Center  437 is at  -1.117211 -2.192702 -1.424127
      ESP Fit Center  438 is at  -0.702630 -2.192702 -1.424127
      ESP Fit Center  439 is at  -0.304842 -2.075901 -1.424127
      ESP Fit Center  440 is at   0.043926 -1.851762 -1.424127
      ESP Fit Center  441 is at   0.315419 -1.538442 -1.424127
      ESP Fit Center  442 is at  -1.225197 -1.859044 -1.698304
      ESP Fit Center  443 is at  -0.803622 -1.898109 -1.698304
      ESP Fit Center  444 is at  -0.396404 -1.782245 -1.698304
      ESP Fit Center  445 is at  -0.058539 -1.527101 -1.698304
      ESP Fit Center  446 is at  -0.909921 -1.548168 -1.903180
      ESP Fit Center  447 is at  -0.511319 -1.441363 -1.903180
      ESP Fit Center  448 is at  -1.113674 -1.103876 -2.029800
      ESP Fit Center  449 is at  -0.706167 -1.103876 -2.029800
      ESP Fit Center  450 is at   2.094650  2.053497  1.133269
      ESP Fit Center  451 is at   1.313228  2.349851  1.133269
      ESP Fit Center  452 is at   0.892293  2.349851  1.133269
      ESP Fit Center  453 is at   0.892293 -1.116859  1.133269
      ESP Fit Center  454 is at   1.798729  1.018314 -1.973575
      ESP Fit Center  455 is at   1.307605  0.971298 -2.093077
      ESP Fit Center  456 is at   1.210712 -1.382533  1.072329
      ESP Fit Center  457 is at   0.951136 -1.563968  0.798152
      ESP Fit Center  458 is at   1.299904 -1.788107  0.798152
      ESP Fit Center  459 is at   0.823013 -1.771047  0.466656
      ESP Fit Center  460 is at   1.182260 -1.999032  0.466656
      ESP Fit Center  461 is at   1.586919 -2.130514  0.466656
      ESP Fit Center  462 is at   0.742753 -1.920559  0.092329
      ESP Fit Center  463 is at   1.096192 -2.142640  0.092329
      ESP Fit Center  464 is at   1.490187 -2.280505  0.092329
      ESP Fit Center  465 is at   1.904982 -2.327241  0.092329
      ESP Fit Center  466 is at   0.811081 -2.076553 -0.308468
      ESP Fit Center  467 is at   1.183486 -2.273990 -0.308468
      ESP Fit Center  468 is at   1.589627 -2.386754 -0.308468
      ESP Fit Center  469 is at   2.010513 -2.409574 -0.308468
      ESP Fit Center  470 is at   0.811081 -2.076553 -0.718220
      ESP Fit Center  471 is at   1.183486 -2.273990 -0.718220
      ESP Fit Center  472 is at   1.589627 -2.386754 -0.718220
      ESP Fit Center  473 is at   2.010513 -2.409574 -0.718220
      ESP Fit Center  474 is at   0.742753 -1.920559 -1.119017
      ESP Fit Center  475 is at   1.096192 -2.142640 -1.119017
      ESP Fit Center  476 is at   1.490187 -2.280505 -1.119017
      ESP Fit Center  477 is at   1.904982 -2.327241 -1.119017
      ESP Fit Center  478 is at   2.319777 -2.280505 -1.119017
      ESP Fit Center  479 is at   0.531749 -1.460882 -1.493344
      ESP Fit Center  480 is at   0.823013 -1.771047 -1.493344
      ESP Fit Center  481 is at   1.182260 -1.999032 -1.493344
      ESP Fit Center  482 is at   1.586919 -2.130514 -1.493344
      ESP Fit Center  483 is at   2.011563 -2.157230 -1.493344
      ESP Fit Center  484 is at   2.429511 -2.077503 -1.493344
      ESP Fit Center  485 is at   0.679643 -1.250648 -1.824840
      ESP Fit Center  486 is at   0.951136 -1.563968 -1.824840
      ESP Fit Center  487 is at   1.299904 -1.788107 -1.824840
      ESP Fit Center  488 is at   1.697692 -1.904908 -1.824840
      ESP Fit Center  489 is at   2.112273 -1.904908 -1.824840
      ESP Fit Center  490 is at   2.510061 -1.788107 -1.824840
      ESP Fit Center  491 is at   2.418499  0.568111 -2.099017
      ESP Fit Center  492 is at   2.011281  0.683975 -2.099017
      ESP Fit Center  493 is at   1.589706  0.644910 -2.099017
      ESP Fit Center  494 is at   0.925482 -1.069651 -2.099017
      ESP Fit Center  495 is at   1.210712 -1.382533 -2.099017
      ESP Fit Center  496 is at   1.589706 -1.571250 -2.099017
      ESP Fit Center  497 is at   2.011281 -1.610315 -2.099017
      ESP Fit Center  498 is at   2.418499 -1.494451 -2.099017
      ESP Fit Center  499 is at   2.595381 -0.064568 -2.303893
      ESP Fit Center  500 is at   2.303584  0.227229 -2.303893
      ESP Fit Center  501 is at   1.904982  0.334034 -2.303893
      ESP Fit Center  502 is at   1.506380  0.227229 -2.303893
      ESP Fit Center  503 is at   1.214583 -0.064568 -2.303893
      ESP Fit Center  504 is at   1.107778 -0.463170 -2.303893
      ESP Fit Center  505 is at   1.214583 -0.861772 -2.303893
      ESP Fit Center  506 is at   1.506380 -1.153569 -2.303893
      ESP Fit Center  507 is at   1.904982 -1.260374 -2.303893
      ESP Fit Center  508 is at   2.303584 -1.153569 -2.303893
      ESP Fit Center  509 is at   2.595381 -0.861772 -2.303893
      ESP Fit Center  510 is at   2.312489 -0.463170 -2.430513
      ESP Fit Center  511 is at   2.108736 -0.110259 -2.430513
      ESP Fit Center  512 is at   1.701229 -0.110259 -2.430513
      ESP Fit Center  513 is at   1.497475 -0.463170 -2.430513
      ESP Fit Center  514 is at   1.701229 -0.816081 -2.430513
      ESP Fit Center  515 is at   2.108736 -0.816081 -2.430513
      ESP Fit Center  516 is at   1.904982 -0.463170 -2.473344
      ESP Fit Center  517 is at   5.490831 -0.251355  1.470147
      ESP Fit Center  518 is at   5.447646  0.173316  1.470147
      ESP Fit Center  519 is at   5.319859  0.580601  1.470147
      ESP Fit Center  520 is at   5.112703  0.953826  1.470147
      ESP Fit Center  521 is at   4.834657  1.277711  1.470147
      ESP Fit Center  522 is at   4.497105  1.538995  1.470147
      ESP Fit Center  523 is at   4.113867  1.726982  1.470147
      ESP Fit Center  524 is at   3.700632  1.833976  1.470147
      ESP Fit Center  525 is at   3.274319  1.855596  1.470147
      ESP Fit Center  526 is at   2.852380  1.790958  1.470147
      ESP Fit Center  527 is at   2.452090  1.642707  1.470147
      ESP Fit Center  528 is at   1.536598 -1.275177  1.470147
      ESP Fit Center  529 is at   1.780450 -1.625530  1.470147
      ESP Fit Center  530 is at   2.089836 -1.919623  1.470147
      ESP Fit Center  531 is at   2.452090 -2.145417  1.470147
      ESP Fit Center  532 is at   2.852380 -2.293668  1.470147
      ESP Fit Center  533 is at   3.274319 -2.358307  1.470147
      ESP Fit Center  534 is at   3.700632 -2.336687  1.470147
      ESP Fit Center  535 is at   4.113867 -2.229693  1.470147
      ESP Fit Center  536 is at   4.497105 -2.041706  1.470147
      ESP Fit Center  537 is at   4.834657 -1.780421  1.470147
      ESP Fit Center  538 is at   5.112703 -1.456537  1.470147
      ESP Fit Center  539 is at   5.319859 -1.083312  1.470147
      ESP Fit Center  540 is at   5.447646 -0.676027  1.470147
      ESP Fit Center  541 is at   5.688920 -0.251355  1.104110
      ESP Fit Center  542 is at   5.649626  0.172692  1.104110
      ESP Fit Center  543 is at   5.533083  0.582300  1.104110
      ESP Fit Center  544 is at   5.343259  0.963518  1.104110
      ESP Fit Center  545 is at   2.749626  1.968297  1.104110
      ESP Fit Center  546 is at   1.419084 -1.466229  1.104110
      ESP Fit Center  547 is at   1.675724 -1.806076  1.104110
      ESP Fit Center  548 is at   1.990442 -2.092979  1.104110
      ESP Fit Center  549 is at   2.352519 -2.317167  1.104110
      ESP Fit Center  550 is at   2.749626 -2.471007  1.104110
      ESP Fit Center  551 is at   3.168239 -2.549260  1.104110
[...]
 7213 Fit      -0.100079
 7214 Fit      -0.101633
 7215 Fit      -0.108396
 7216 Fit      -0.106312
 7217 Fit      -0.192561
 7218 Fit      -0.108168
 7219 Fit      -0.106205
 7220 Fit      -0.160865
 7221 Fit      -0.169894
 7222 Fit      -0.176775
 7223 Fit      -0.180769
 7224 Fit      -0.167408
 7225 Fit      -0.139144
 7226 Fit      -0.113393
 7227 Fit      -0.109945
 7228 Fit      -0.107330
 7229 Fit      -0.105258
 7230 Fit      -0.103537
 7231 Fit      -0.102054
 7232 Fit      -0.100788
 7233 Fit      -0.135545
 7234 Fit      -0.146061
 7235 Fit      -0.155132
 7236 Fit      -0.162160
 7237 Fit      -0.166462
 7238 Fit      -0.155257
 7239 Fit      -0.153499
 7240 Fit      -0.149244
 7241 Fit      -0.143448
 7242 Fit      -0.136805
 7243 Fit      -0.129823
 7244 Fit      -0.123145
 7245 Fit      -0.117407
 7246 Fit      -0.112893
 7247 Fit      -0.109500
 7248 Fit      -0.106986
 7249 Fit      -0.105142
 7250 Fit      -0.103869
 7251 Fit      -0.103227
 7252 Fit      -0.103519
 7253 Fit      -0.105339
 7254 Fit      -0.109399
 7255 Fit      -0.115999
 7256 Fit      -0.124544
 7257 Fit      -0.133770
 7258 Fit      -0.142385
 7259 Fit      -0.149363
 7260 Fit      -0.153858
 7261 Fit      -0.144565
 7262 Fit      -0.143086
 7263 Fit      -0.138932
 7264 Fit      -0.133132
 7265 Fit      -0.126678
 7266 Fit      -0.120497
 7267 Fit      -0.115303
 7268 Fit      -0.111373
 7269 Fit      -0.108646
 7270 Fit      -0.107007
 7271 Fit      -0.106489
 7272 Fit      -0.107393
 7273 Fit      -0.110248
 7274 Fit      -0.115443
 7275 Fit      -0.122628
 7276 Fit      -0.130583
 7277 Fit      -0.137744
 7278 Fit      -0.142721
 7279 Fit      -0.135277
 7280 Fit      -0.133561
 7281 Fit      -0.128604
 7282 Fit      -0.122354
 7283 Fit      -0.116647
 7284 Fit      -0.112578
 7285 Fit      -0.110520
 7286 Fit      -0.110733
 7287 Fit      -0.113680
 7288 Fit      -0.119432
 7289 Fit      -0.126636
 7290 Fit      -0.132704
 7291 Fit      -0.127319
 7292 Fit      -0.124427
 7293 Fit      -0.118389
 7294 Fit      -0.115027
 7295 Fit      -0.117059
 7296 Fit      -0.123330
 7297 Fit      -0.120599
 7298 Fit      -0.142823
 7299 Fit      -0.139477
 7300 Fit      -0.142071
 7301 Fit      -0.134781
 7302 Fit      -0.130706
 7303 Fit      -0.129241
 7304 Fit      -0.130175
 7305 Fit      -0.133605
 7306 Fit      -0.139979
 7307 Fit      -0.131321
 7308 Fit      -0.125804
 7309 Fit      -0.122578
 7310 Fit      -0.121237
 7311 Fit      -0.121653
 7312 Fit      -0.123959
 7313 Fit      -0.128801
 7314 Fit      -0.122618
 7315 Fit      -0.118496
 7316 Fit      -0.115946
 7317 Fit      -0.114716
 7318 Fit      -0.114714
 7319 Fit      -0.116000
 7320 Fit      -0.118859
 7321 Fit      -0.127733
 7322 Fit      -0.120844
 7323 Fit      -0.116011
 7324 Fit      -0.112672
 7325 Fit      -0.110517
 7326 Fit      -0.109369
 7327 Fit      -0.109143
 7328 Fit      -0.109838
 7329 Fit      -0.111586
 7330 Fit      -0.119395
 7331 Fit      -0.114408
 7332 Fit      -0.110706
 7333 Fit      -0.108026
 7334 Fit      -0.106195
 7335 Fit      -0.105096
 7336 Fit      -0.104638
 7337 Fit      -0.104753
 7338 Fit      -0.105402
 7339 Fit      -0.115647
 7340 Fit      -0.111422
 7341 Fit      -0.108075
 7342 Fit      -0.105493
 7343 Fit      -0.103577
 7344 Fit      -0.102237
 7345 Fit      -0.101377
 7346 Fit      -0.100886
 7347 Fit      -0.100608
 7348 Fit      -0.100306
 7349 Fit      -0.117220
 7350 Fit      -0.113220
 7351 Fit      -0.109574
 7352 Fit      -0.106452
 7353 Fit      -0.103894
 7354 Fit      -0.101878
 7355 Fit      -0.100348
 7356 Fit      -0.099217
 7357 Fit      -0.098349
 7358 Fit      -0.097532
 7359 Fit      -0.096389
 7360 Fit      -0.110062
 7361 Fit      -0.107099
 7362 Fit      -0.104391
 7363 Fit      -0.102072
 7364 Fit      -0.100176
 7365 Fit      -0.098668
 7366 Fit      -0.097449
 7367 Fit      -0.096338
 7368 Fit      -0.095007
 7369 Fit      -0.108048
 7370 Fit      -0.105571
 7371 Fit      -0.103186
 7372 Fit      -0.101063
 7373 Fit      -0.099265
 7374 Fit      -0.097768
 7375 Fit      -0.096462
 7376 Fit      -0.095124
 7377 Fit      -0.093340
 7378 Fit      -0.105492
 7379 Fit      -0.103157
 7380 Fit      -0.101012
 7381 Fit      -0.099154
 7382 Fit      -0.097567
 7383 Fit      -0.096110
 7384 Fit      -0.094480
 7385 Fit      -0.103903
 7386 Fit      -0.101693
 7387 Fit      -0.099758
 7388 Fit      -0.098092
 7389 Fit      -0.096539
 7390 Fit      -0.150690
 7391 Fit      -0.155289
 7392 Fit      -0.144441
 7393 Fit      -0.147225
 7394 Fit      -0.153744
 7395 Fit      -0.162315
 7396 Fit      -0.140382
 7397 Fit      -0.139587
 7398 Fit      -0.141708
 7399 Fit      -0.146501
 7400 Fit      -0.153551
 7401 Fit      -0.162140
 7402 Fit      -0.171115
 7403 Fit      -0.137072
 7404 Fit      -0.135976
 7405 Fit      -0.137187
 7406 Fit      -0.140562
 7407 Fit      -0.145970
 7408 Fit      -0.153231
 7409 Fit      -0.162005
 7410 Fit      -0.171662
 7411 Fit      -0.181205
 7412 Fit      -0.201521
 7413 Fit      -0.136009
 7414 Fit      -0.134031
 7415 Fit      -0.134112
 7416 Fit      -0.136086
 7417 Fit      -0.139855
 7418 Fit      -0.145373
 7419 Fit      -0.152600
 7420 Fit      -0.161420
 7421 Fit      -0.171525
 7422 Fit      -0.182295
 7423 Fit      -0.192721
 7424 Fit      -0.215101
 7425 Fit      -0.136206
 7426 Fit      -0.133728
 7427 Fit      -0.133112
 7428 Fit      -0.134143
 7429 Fit      -0.136686
 7430 Fit      -0.140690
 7431 Fit      -0.146171
 7432 Fit      -0.153175
 7433 Fit      -0.161725
 7434 Fit      -0.171734
 7435 Fit      -0.182905
 7436 Fit      -0.194608
 7437 Fit      -0.205798
 7438 Fit      -0.229628
 7439 Fit      -0.136864
 7440 Fit      -0.134450
 7441 Fit      -0.133884
 7442 Fit      -0.134874
 7443 Fit      -0.137231
 7444 Fit      -0.140878
 7445 Fit      -0.145843
 7446 Fit      -0.152227
 7447 Fit      -0.160158
 7448 Fit      -0.169732
 7449 Fit      -0.180916
 7450 Fit      -0.193433
 7451 Fit      -0.206610
 7452 Fit      -0.219242
 7453 Fit      -0.136480
 7454 Fit      -0.136315
 7455 Fit      -0.137559
 7456 Fit      -0.139946
 7457 Fit      -0.143353
 7458 Fit      -0.147803
 7459 Fit      -0.153422
 7460 Fit      -0.160407
 7461 Fit      -0.168968
 7462 Fit      -0.179267
 7463 Fit      -0.191322
 7464 Fit      -0.204880
 7465 Fit      -0.219241
 7466 Fit      -0.177899
 7467 Fit      -0.188502
 7468 Fit      -0.201115
 7469 Fit      -0.215547
 7470 Fit      -0.208461
 7471 Fit      -0.100662
 7472 Fit      -0.100172
 7473 Fit      -0.101298
 7474 Fit      -0.103353
 7475 Fit      -0.105703
 7476 Fit      -0.107873
 7477 Fit      -0.109581
 7478 Fit      -0.110716
 7479 Fit      -0.108231
 7480 Fit      -0.104900
 7481 Fit      -0.103684
 7482 Fit      -0.103808
 7483 Fit      -0.104660
 7484 Fit      -0.105780
 7485 Fit      -0.106864
 7486 Fit      -0.107766
 7487 Fit      -0.115669
 7488 Fit      -0.109998
 7489 Fit      -0.106860
 7490 Fit      -0.105407
 7491 Fit      -0.105024
 7492 Fit      -0.105253
 7493 Fit      -0.105782
 7494 Fit      -0.106441
 7495 Fit      -0.107197
 7496 Fit      -0.117705
 7497 Fit      -0.111894
 7498 Fit      -0.108476
 7499 Fit      -0.106710
 7500 Fit      -0.106028
 7501 Fit      -0.106029
 7502 Fit      -0.106476
 7503 Fit      -0.107283
 7504 Fit      -0.126766
 7505 Fit      -0.118568
 7506 Fit      -0.113089
 7507 Fit      -0.109790
 7508 Fit      -0.108084
 7509 Fit      -0.107495
 7510 Fit      -0.107709
 7511 Fit      -0.108575
 7512 Fit      -0.151135
 7513 Fit      -0.132683
 7514 Fit      -0.123835
 7515 Fit      -0.117145
 7516 Fit      -0.112876
 7517 Fit      -0.110645
 7518 Fit      -0.109977
 7519 Fit      -0.110536
 7520 Fit      -0.140350
 7521 Fit      -0.139937
 7522 Fit      -0.134696
 7523 Fit      -0.126696
 7524 Fit      -0.119548
 7525 Fit      -0.115152
 7526 Fit      -0.113601
 7527 Fit      -0.114472
 7528 Fit      -0.136560
 7529 Fit      -0.131827
 7530 Fit      -0.129040
 7531 Fit      -0.121970
 7532 Fit      -0.118425
 7533 Fit      -0.120728
 7534 Fit      -0.127158
 7535 Fit      -0.124495
 7536 Fit      -0.118989
 7537 Fit      -0.115606
 7538 Fit      -0.115266
 7539 Fit      -0.125663
 7540 Fit      -0.117848
 7541 Fit      -0.112162
 7542 Fit      -0.108624
 7543 Fit      -0.107210
 7544 Fit      -0.107936
 7545 Fit      -0.110885
 7546 Fit      -0.124927
 7547 Fit      -0.116559
 7548 Fit      -0.109993
 7549 Fit      -0.105240
 7550 Fit      -0.102196
 7551 Fit      -0.100786
 7552 Fit      -0.101002
 7553 Fit      -0.102900
 7554 Fit      -0.106595
 7555 Fit      -0.108036
 7556 Fit      -0.102871
 7557 Fit      -0.099167
 7558 Fit      -0.096742
 7559 Fit      -0.095521
 7560 Fit      -0.095505
 7561 Fit      -0.096746
 7562 Fit      -0.099333
 7563 Fit      -0.103393
 7564 Fit      -0.095161
 7565 Fit      -0.092909
 7566 Fit      -0.091552
 7567 Fit      -0.091113
 7568 Fit      -0.091666
 7569 Fit      -0.093306
 7570 Fit      -0.096147
 7571 Fit      -0.100325
 7572 Fit      -0.106012
 7573 Fit      -0.089251
 7574 Fit      -0.088302
 7575 Fit      -0.087842
 7576 Fit      -0.088036
 7577 Fit      -0.089030
 7578 Fit      -0.090952
 7579 Fit      -0.093929
 7580 Fit      -0.098095
 7581 Fit      -0.103610
 7582 Fit      -0.085303
 7583 Fit      -0.085346
 7584 Fit      -0.085669
 7585 Fit      -0.086538
 7586 Fit      -0.088140
 7587 Fit      -0.090623
 7588 Fit      -0.094119
 7589 Fit      -0.098765
 7590 Fit      -0.104714
 7591 Fit      -0.083283
 7592 Fit      -0.083957
 7593 Fit      -0.084710
 7594 Fit      -0.085936
 7595 Fit      -0.087882
 7596 Fit      -0.090722
 7597 Fit      -0.094599
 7598 Fit      -0.099653
 7599 Fit      -0.083189
 7600 Fit      -0.084197
 7601 Fit      -0.085376
 7602 Fit      -0.087146
 7603 Fit      -0.089756
 7604 Fit      -0.093377
 7605 Fit      -0.098145
 7606 Fit      -0.084768
 7607 Fit      -0.085889
 7608 Fit      -0.087427
 7609 Fit      -0.089725
 7610 Fit      -0.092983
 7611 Fit      -0.097326
 7612 Fit      -0.102824
 7613 Fit      -0.087320
 7614 Fit      -0.088400
 7615 Fit      -0.090157
 7616 Fit      -0.092903
 7617 Fit      -0.096790
 7618 Fit      -0.101849
 7619 Fit      -0.091196
 7620 Fit      -0.092036
 7621 Fit      -0.093978
 7622 Fit      -0.097167
 7623 Fit      -0.101569
 7624 Fit      -0.096104
 7625 Fit      -0.097268
 7626 Fit      -0.100109
 7627 Fit      -0.174252
 7628 Fit      -0.179830
 7629 Fit      -0.170561
 7630 Fit      -0.165856
 7631 Fit      -0.171094
 7632 Fit      -0.179576
 7633 Fit      -0.183533
 7634 Fit      -0.187781
 7635 Fit      -0.178349
 7636 Fit      -0.168145
 7637 Fit      -0.160577
 7638 Fit      -0.158133
 7639 Fit      -0.161924
 7640 Fit      -0.170488
 7641 Fit      -0.179942
 7642 Fit      -0.187129
 7643 Fit      -0.191449
 7644 Fit      -0.193790
 7645 Fit      -0.193183
 7646 Fit      -0.198034
 7647 Fit      -0.188414
 7648 Fit      -0.177348
 7649 Fit      -0.166772
 7650 Fit      -0.158110
 7651 Fit      -0.152450
 7652 Fit      -0.150778
 7653 Fit      -0.153918
 7654 Fit      -0.202706
 7655 Fit      -0.204948
 7656 Fit      -0.199827
 7657 Fit      -0.187702
 7658 Fit      -0.175594
 7659 Fit      -0.164561
 7660 Fit      -0.155262
 7661 Fit      -0.148242
 7662 Fit      -0.144134
 7663 Fit      -0.143754
 7664 Fit      -0.198828
 7665 Fit      -0.185222
 7666 Fit      -0.172500
 7667 Fit      -0.161119
 7668 Fit      -0.151341
 7669 Fit      -0.143470
 7670 Fit      -0.137981
 7671 Fit      -0.135578
 7672 Fit      -0.196410
 7673 Fit      -0.182498
 7674 Fit      -0.169747
 7675 Fit      -0.158224
 7676 Fit      -0.147969
 7677 Fit      -0.139166
 7678 Fit      -0.132206
 7679 Fit      -0.127658
 7680 Fit      -0.205577
 7681 Fit      -0.190350
 7682 Fit      -0.176317
 7683 Fit      -0.163367
 7684 Fit      -0.151321
 7685 Fit      -0.140183
 7686 Fit      -0.198945
 7687 Fit      -0.184324
 7688 Fit      -0.170552
 7689 Fit      -0.128863
 7690 Fit      -0.119478
 7691 Fit      -0.112784
 7692 Fit      -0.139589
 7693 Fit      -0.129195
 7694 Fit      -0.119678
 7695 Fit      -0.111785
 7696 Fit      -0.105705
 7697 Fit      -0.138944
 7698 Fit      -0.128197
 7699 Fit      -0.118657
 7700 Fit      -0.110591
 7701 Fit      -0.103967
 7702 Fit      -0.098520
 7703 Fit      -0.148428
 7704 Fit      -0.136490
 7705 Fit      -0.125709
 7706 Fit      -0.116358
 7707 Fit      -0.108459
 7708 Fit      -0.101875
 7709 Fit      -0.096330
 7710 Fit      -0.091346
 7711 Fit      -0.145777
 7712 Fit      -0.134013
 7713 Fit      -0.123661
 7714 Fit      -0.114757
 7715 Fit      -0.107214
 7716 Fit      -0.100871
 7717 Fit      -0.095501
 7718 Fit      -0.090769
 7719 Fit      -0.086124
 7720 Fit      -0.139506
 7721 Fit      -0.128231
 7722 Fit      -0.118540
 7723 Fit      -0.110323
 7724 Fit      -0.103419
 7725 Fit      -0.097633
 7726 Fit      -0.092728
 7727 Fit      -0.088380
 7728 Fit      -0.084081
 7729 Fit      -0.133490
 7730 Fit      -0.123204
 7731 Fit      -0.114455
 7732 Fit      -0.107081
 7733 Fit      -0.100910
 7734 Fit      -0.095756
 7735 Fit      -0.091410
 7736 Fit      -0.087607
 7737 Fit      -0.083969
 7738 Fit      -0.137280
 7739 Fit      -0.126633
 7740 Fit      -0.117584
 7741 Fit      -0.109962
 7742 Fit      -0.103597
 7743 Fit      -0.098324
 7744 Fit      -0.093973
 7745 Fit      -0.090365
 7746 Fit      -0.087283
 7747 Fit      -0.084456
 7748 Fit      -0.126744
 7749 Fit      -0.117731
 7750 Fit      -0.110228
 7751 Fit      -0.104054
 7752 Fit      -0.099044
 7753 Fit      -0.095040
 7754 Fit      -0.091889
 7755 Fit      -0.089440
 7756 Fit      -0.087551
 7757 Fit      -0.125411
 7758 Fit      -0.116771
 7759 Fit      -0.109722
 7760 Fit      -0.104082
 7761 Fit      -0.099692
 7762 Fit      -0.096413
 7763 Fit      -0.094134
 7764 Fit      -0.092782
 7765 Fit      -0.092372
 7766 Fit      -0.124852
 7767 Fit      -0.116847
 7768 Fit      -0.110486
 7769 Fit      -0.105605
 7770 Fit      -0.102072
 7771 Fit      -0.099791
 7772 Fit      -0.098717
 7773 Fit      -0.098875
 7774 Fit      -0.100377
 7775 Fit      -0.121524
 7776 Fit      -0.114903
 7777 Fit      -0.110129
 7778 Fit      -0.107078
 7779 Fit      -0.105679
 7780 Fit      -0.105936
 7781 Fit      -0.107912
 7782 Fit      -0.116136
 7783 Fit      -0.113955
 7784 Fit      -0.231163
 7785 Fit      -0.219801
 7786 Fit      -0.210520
 7787 Fit      -0.197763
 7788 Fit      -0.210281
 7789 Fit      -0.223396
 7790 Fit      -0.239060
 7791 Fit      -0.232561
 7792 Fit      -0.223539
 7793 Fit      -0.213569
 7794 Fit      -0.204189
 7795 Fit      -0.196382
 7796 Fit      -0.176493
 7797 Fit      -0.188244
 7798 Fit      -0.200155
 7799 Fit      -0.212175
 7800 Fit      -0.223735
 7801 Fit      -0.233536
 7802 Fit      -0.219395
 7803 Fit      -0.214309
 7804 Fit      -0.206827
 7805 Fit      -0.198460
 7806 Fit      -0.190467
 7807 Fit      -0.183373
 7808 Fit      -0.176852
 7809 Fit      -0.170134
 7810 Fit      -0.162841
 7811 Fit      -0.155581
 7812 Fit      -0.149579
 7813 Fit      -0.145874
 7814 Fit      -0.144990
 7815 Fit      -0.160528
 7816 Fit      -0.170329
 7817 Fit      -0.180953
 7818 Fit      -0.191812
 7819 Fit      -0.202331
 7820 Fit      -0.211546
 7821 Fit      -0.218111
 7822 Fit      -0.220850
 7823 Fit      -0.203068
 7824 Fit      -0.198808
 7825 Fit      -0.192075
 7826 Fit      -0.184474
 7827 Fit      -0.177036
 7828 Fit      -0.169933
 7829 Fit      -0.163016
 7830 Fit      -0.156673
 7831 Fit      -0.151961
 7832 Fit      -0.149951
 7833 Fit      -0.151254
 7834 Fit      -0.155963
 7835 Fit      -0.163541
 7836 Fit      -0.172909
 7837 Fit      -0.182886
 7838 Fit      -0.192270
 7839 Fit      -0.199623
 7840 Fit      -0.203478
 7841 Fit      -0.189589
 7842 Fit      -0.185429
 7843 Fit      -0.178325
 7844 Fit      -0.170490
 7845 Fit      -0.163175
 7846 Fit      -0.157579
 7847 Fit      -0.155396
 7848 Fit      -0.157787
 7849 Fit      -0.164472
 7850 Fit      -0.173659
 7851 Fit      -0.182697
 7852 Fit      -0.188709
 7853 Fit      -0.178483
 7854 Fit      -0.173288
 7855 Fit      -0.165341
 7856 Fit      -0.161744
 7857 Fit      -0.166399
 7858 Fit      -0.175092
 7859 Fit      -0.169326
 7860 Fit      -0.253872
 7861 Fit      -0.234791
 7862 Fit      -0.220375
 7863 Fit      -0.269615
 7864 Fit      -0.246931
 7865 Fit      -0.229894
 7866 Fit      -0.217198
 7867 Fit      -0.207800
 7868 Fit      -0.253487
 7869 Fit      -0.234591
 7870 Fit      -0.220870
 7871 Fit      -0.211313
 7872 Fit      -0.261016
 7873 Fit      -0.240398
 7874 Fit      -0.225590
 7875 Fit      -0.215525
 7876 Fit      -0.243231
 7877 Fit      -0.228171
 7878 Fit      -0.218200
 7879 Fit      -0.259070
 7880 Fit      -0.239435
 7881 Fit      -0.225966
 7882 Fit      -0.217973
 7883 Fit      -0.250034
 7884 Fit      -0.233353
 7885 Fit      -0.222761
 7886 Fit      -0.242301
 7887 Fit      -0.228899
 7888 Fit      -0.221370
 7889 Fit      -0.245539
 7890 Fit      -0.231148
 7891 Fit      -0.222874
 7892 Fit      -0.248675
 7893 Fit      -0.233604
 7894 Fit      -0.224412
 7895 Fit      -0.268015
 7896 Fit      -0.248385
 7897 Fit      -0.233589
 7898 Fit      -0.224424
 7899 Fit      -0.263161
 7900 Fit      -0.245225
 7901 Fit      -0.231125
 7902 Fit      -0.222872
 7903 Fit      -0.242476
 7904 Fit      -0.229593
 7905 Fit      -0.243386
 7906 Fit      -0.245319
 7907 Fit      -0.229666
 7908 Fit      -0.229106
 7909 Fit      -0.242094
 7910 Fit      -0.247803
 7911 Fit      -0.229433
 7912 Fit      -0.218243
 7913 Fit      -0.215110
 7914 Fit      -0.219113
 7915 Fit      -0.228141
 7916 Fit      -0.241554
 7917 Fit      -0.259869
 7918 Fit      -0.250792
 7919 Fit      -0.231624
 7920 Fit      -0.217474
 7921 Fit      -0.208508
 7922 Fit      -0.205014
 7923 Fit      -0.206880
 7924 Fit      -0.212787
 7925 Fit      -0.220726
 7926 Fit      -0.229970
 7927 Fit      -0.241880
 7928 Fit      -0.258233
 7929 Fit      -0.250628
 7930 Fit      -0.231257
 7931 Fit      -0.216184
 7932 Fit      -0.205071
 7933 Fit      -0.214094
 7934 Fit      -0.230022
 7935 Fit      -0.239307
 7936 Fit      -0.252508
 7937 Fit      -0.247310
 7938 Fit      -0.228302
 7939 Fit      -0.213062
 7940 Fit      -0.245690
 7941 Fit      -0.259241
 7942 Fit      -0.245093
 7943 Fit      -0.226685
 7944 Fit      -0.211483
 7945 Fit      -0.266908
 -----------------------------------------------------------------
 Leave Link  602 at Mon Apr  3 03:34:00 2017, MaxMem=    33554432 cpu:         1.4

 Test job not archived.
 1\1\GINC-NID00012\SP\RHF\6-31G(d)\C6H11O9P1(2-)\NMIH\03-Apr-2017\0\\#H
 F/6-31G* Test Pop=MK iop(6/33=2) iop(6/42=6)\\F6P.pdb\\-2,1\O,0,2.812,
 -0.579,2.931\C,0,1.439,-0.819,3.247\C,0,0.555,0.12,2.425\O,0,0.891,1.4
 78,2.715\C,0,-0.93,-0.134,2.756\O,0,-1.433,0.852,3.659\C,0,-1.604,-0.0
 04,1.362\O,0,-2.793,-0.793,1.287\C,0,-0.496,-0.577,0.443\O,0,0.74,-0.1
 37,1.028\C,0,-0.639,-0.021,-0.975\O,0,0.428,-0.511,-1.788\P,0,0.216,0.
 109,-3.258\O,0,0.25,1.586,-3.18\O,0,1.391,-0.403,-4.232\O,0,-1.208,-0.
 364,-3.84\H,0,3.333,-1.191,3.47\H,0,1.187,-1.853,3.012\H,0,1.273,-0.63
 7,4.309\H,0,1.824,1.59,2.49\H,0,-1.07,-1.136,3.163\H,0,-2.382,0.688,3.
 752\H,0,-1.812,1.038,1.123\H,0,-3.438,-0.382,1.88\H,0,-0.542,-1.666,0.
 429\H,0,-1.592,-0.341,-1.396\H,0,-0.603,1.067,-0.944\\Version=ES64L-G0
 9RevD.01\State=1-A\HF=-1247.9478018\RMSD=3.792e-09\Dipole=-1.5145082,-
 1.4053724,14.0492443\Quadrupole=35.9862358,31.28523,-67.2714658,-4.357
 4041,5.1849867,-6.32449\PG=C01 [X(C6H11O9P1)]\\@


 IT PROBABLY IS NOT POSSIBLE FOR A SCIENTIST TO INTERROGATE NATURE 
 FROM A WHOLLY DISINTERESTED VIEWPOINT.
 EVEN IF HE HAS NO PARTICULAR AXE TO GRIND, HE IS LIKELY TO HAVE 
 A DISTINCTIVE WAY OF VIEWING NATURE.

                                                   -- JOHN LOSEE
 Job cpu time:       0 days  0 hours  1 minutes  1.2 seconds.
 File lengths (MBytes):  RWF=     40 Int=      0 D2E=      0 Chk=      4 Scr=      1
 Normal termination of Gaussian 09 at Mon Apr  3 03:34:00 2017.
