 Entering Gaussian System, Link 0=g09
 Input=H2PO4_representative_noopt.gau
 Output=H2PO4_representative_noopt.log
 Initial command:
 /usr/common/software/g09/d1/g09/l1.exe "/global/cscratch1/sd/nmih/Gau-38350.inp" -scrdir="/global/cscratch1/sd/nmih/"
 Entering Link 1 = /usr/common/software/g09/d1/g09/l1.exe PID=     38351.
  
 Copyright (c) 1988,1990,1992,1993,1995,1998,2003,2009,2013,
            Gaussian, Inc.  All Rights Reserved.
  
 This is part of the Gaussian(R) 09 program.  It is based on
 the Gaussian(R) 03 system (copyright 2003, Gaussian, Inc.),
 the Gaussian(R) 98 system (copyright 1998, Gaussian, Inc.),
 the Gaussian(R) 94 system (copyright 1995, Gaussian, Inc.),
 the Gaussian 92(TM) system (copyright 1992, Gaussian, Inc.),
 the Gaussian 90(TM) system (copyright 1990, Gaussian, Inc.),
 the Gaussian 88(TM) system (copyright 1988, Gaussian, Inc.),
 the Gaussian 86(TM) system (copyright 1986, Carnegie Mellon
 University), and the Gaussian 82(TM) system (copyright 1983,
 Carnegie Mellon University). Gaussian is a federally registered
 trademark of Gaussian, Inc.
  
 This software contains proprietary and confidential information,
 including trade secrets, belonging to Gaussian, Inc.
  
 This software is provided under written license and may be
 used, copied, transmitted, or stored only in accord with that
 written license.
  
 The following legend is applicable only to US Government
 contracts under FAR:
  
                    RESTRICTED RIGHTS LEGEND
  
 Use, reproduction and disclosure by the US Government is
 subject to restrictions as set forth in subparagraphs (a)
 and (c) of the Commercial Computer Software - Restricted
 Rights clause in FAR 52.227-19.
  
 Gaussian, Inc.
 340 Quinnipiac St., Bldg. 40, Wallingford CT 06492
  
  
 ---------------------------------------------------------------
 Warning -- This program may not be used in any manner that
 competes with the business of Gaussian, Inc. or will provide
 assistance to any competitor of Gaussian, Inc.  The licensee
 of this program is prohibited from giving any competitor of
 Gaussian, Inc. access to this program.  By using this program,
 the user acknowledges that Gaussian, Inc. is engaged in the
 business of creating and licensing software in the field of
 computational chemistry and represents and warrants to the
 licensee that it is not a competitor of Gaussian, Inc. and that
 it will not use this program in any manner prohibited above.
 ---------------------------------------------------------------
  

 Cite this work as:
 Gaussian 09, Revision D.01,
 M. J. Frisch, G. W. Trucks, H. B. Schlegel, G. E. Scuseria, 
 M. A. Robb, J. R. Cheeseman, G. Scalmani, V. Barone, B. Mennucci, 
 G. A. Petersson, H. Nakatsuji, M. Caricato, X. Li, H. P. Hratchian, 
 A. F. Izmaylov, J. Bloino, G. Zheng, J. L. Sonnenberg, M. Hada, 
 M. Ehara, K. Toyota, R. Fukuda, J. Hasegawa, M. Ishida, T. Nakajima, 
 Y. Honda, O. Kitao, H. Nakai, T. Vreven, J. A. Montgomery, Jr., 
 J. E. Peralta, F. Ogliaro, M. Bearpark, J. J. Heyd, E. Brothers, 
 K. N. Kudin, V. N. Staroverov, T. Keith, R. Kobayashi, J. Normand, 
 K. Raghavachari, A. Rendell, J. C. Burant, S. S. Iyengar, J. Tomasi, 
 M. Cossi, N. Rega, J. M. Millam, M. Klene, J. E. Knox, J. B. Cross, 
 V. Bakken, C. Adamo, J. Jaramillo, R. Gomperts, R. E. Stratmann, 
 O. Yazyev, A. J. Austin, R. Cammi, C. Pomelli, J. W. Ochterski, 
 R. L. Martin, K. Morokuma, V. G. Zakrzewski, G. A. Voth, 
 P. Salvador, J. J. Dannenberg, S. Dapprich, A. D. Daniels, 
 O. Farkas, J. B. Foresman, J. V. Ortiz, J. Cioslowski, 
 and D. J. Fox, Gaussian, Inc., Wallingford CT, 2013.
 
 ******************************************
 Gaussian 09:  ES64L-G09RevD.01 24-Apr-2013
                30-Sep-2016 
 ******************************************
 %chk=Pi_rep
 ----------------------------------------------
 #HF/6-31G* Test Pop=MK iop(6/33=2) iop(6/42=6)
 ----------------------------------------------
 1/38=1/1;
 2/12=2,17=6,18=5,40=1/2;
 3/5=1,6=6,7=1,11=9,16=1,25=1,30=1/1,2,3;
 4//1;
 5/5=2,38=5/2;
 6/7=2,8=2,9=2,10=2,15=8,20=1,28=1,33=2,42=6/1,2;
 99/5=1,9=1/99;
 ------------------------
 H2PO4_representative.pdb
 ------------------------
 Symbolic Z-matrix:
 Charge = -1 Multiplicity = 1
 P                     11.37     39.444    13.137 
 O                     10.283    39.973    14.028 
 O                     10.973    38.112    12.545 
 O                     11.757    40.433    12.097 
 O                     12.603    39.2      14.021 
 H                     12.444    40.098    11.533 
 H                     13.29     38.865    13.457 
 
                          Input orientation:                          
 ---------------------------------------------------------------------
 Center     Atomic      Atomic             Coordinates (Angstroms)
 Number     Number       Type             X           Y           Z
 ---------------------------------------------------------------------
      1         15           0       11.370000   39.444000   13.137000
      2          8           0       10.283000   39.973000   14.028000
      3          8           0       10.973000   38.112000   12.545000
      4          8           0       11.757000   40.433000   12.097000
      5          8           0       12.603000   39.200000   14.021000
      6          1           0       12.444000   40.098000   11.533000
      7          1           0       13.290000   38.865000   13.457000
 ---------------------------------------------------------------------
                    Distance matrix (angstroms):
                    1          2          3          4          5
     1  P    0.000000
     2  O    1.501763   0.000000
     3  O    1.510727   2.477642   0.000000
     4  O    1.486435   2.472456   2.490462   0.000000
     5  O    1.536646   2.445399   2.453410   2.436756   0.000000
     6  H    2.038138   3.303115   2.670614   0.949889   2.649873
     7  H    2.030773   3.255112   2.601392   2.580371   0.949889
                    6          7
     6  H    0.000000
     7  H    2.436756   0.000000
 Stoichiometry    H2O4P(1-)
 Framework group  C1[X(H2O4P)]
 Deg. of freedom    15
 Full point group                 C1      NOp   1
 Largest Abelian subgroup         C1      NOp   1
 Largest concise Abelian subgroup C1      NOp   1
                         Standard orientation:                         
 ---------------------------------------------------------------------
 Center     Atomic      Atomic             Coordinates (Angstroms)
 Number     Number       Type             X           Y           Z
 ---------------------------------------------------------------------
      1         15           0       -0.071327   -0.042289    0.011629
      2          8           0       -1.385600   -0.311932   -0.663107
      3          8           0       -0.271653    0.209481    1.487697
      4          8           0        0.912119   -1.125858   -0.249528
      5          8           0        0.495205    1.249570   -0.597815
      6          1           0        1.743124   -0.955590    0.177940
      7          1           0        1.326210    1.419838   -0.170347
 ---------------------------------------------------------------------
 Rotational constants (GHZ):      5.0686777      4.9007785      4.8296665
 Standard basis: 6-31G(d) (6D, 7F)
 There are    83 symmetry adapted cartesian basis functions of A   symmetry.
 There are    83 symmetry adapted basis functions of A   symmetry.
    83 basis functions,   172 primitive gaussians,    83 cartesian basis functions
    25 alpha electrons       25 beta electrons
       nuclear repulsion energy       276.8480134288 Hartrees.
 NAtoms=    7 NActive=    7 NUniq=    7 SFac= 1.00D+00 NAtFMM=   60 NAOKFM=F Big=F
 Integral buffers will be    131072 words long.
 Raffenetti 1 integral format.
 Two-electron integral symmetry is turned on.
 One-electron integrals computed using PRISM.
 NBasis=    83 RedAO= T EigKep=  6.82D-03  NBF=    83
 NBsUse=    83 1.00D-06 EigRej= -1.00D+00 NBFU=    83
 ExpMin= 9.98D-02 ExpMax= 1.94D+04 ExpMxC= 2.91D+03 IAcc=2 IRadAn=         4 AccDes= 0.00D+00
 Harris functional with IExCor=  205 and IRadAn=       4 diagonalized for initial guess.
 HarFok:  IExCor=  205 AccDes= 0.00D+00 IRadAn=         4 IDoV= 1 UseB2=F ITyADJ=14
 ICtDFT=  3500011 ScaDFX=  1.000000  1.000000  1.000000  1.000000
 FoFCou: FMM=F IPFlag=           0 FMFlag=      100000 FMFlg1=           0
         NFxFlg=           0 DoJE=T BraDBF=F KetDBF=T FulRan=T
         wScrn=  0.000000 ICntrl=     500 IOpCl=  0 I1Cent=   200000004 NGrid=           0
         NMat0=    1 NMatS0=      1 NMatT0=    0 NMatD0=    1 NMtDS0=    0 NMtDT0=    0
 Petite list used in FoFCou.
 Keep R1 ints in memory in canonical form, NReq=6971691.
 Requested convergence on RMS density matrix=1.00D-08 within 128 cycles.
 Requested convergence on MAX density matrix=1.00D-06.
 Requested convergence on             energy=1.00D-06.
 No special actions if energy rises.
 SCF Done:  E(RHF) =  -641.419548023     A.U. after   13 cycles
            NFock= 13  Conv=0.61D-08     -V/T= 2.0008

 **********************************************************************

            Population analysis using the SCF density.

 **********************************************************************

 Orbital symmetries:
 BldTbl:  Degeneracy threshold= 1.00D-02
       Occupied  (A) (A) (A) (A) (A) (A) (A) (A) (A) (A) (A) (A)
                 (A) (A) (A) (A) (A) (A) (A) (A) (A) (A) (A) (A)
                 (A)
       Virtual   (A) (A) (A) (A) (A) (A) (A) (A) (A) (A) (A) (A)
                 (A) (A) (A) (A) (A) (A) (A) (A) (A) (A) (A) (A)
                 (A) (A) (A) (A) (A) (A) (A) (A) (A) (A) (A) (A)
                 (A) (A) (A) (A) (A) (A) (A) (A) (A) (A) (A) (A)
                 (A) (A) (A) (A) (A) (A) (A) (A) (A) (A)
 The electronic state is 1-A.
 Alpha  occ. eigenvalues --  -79.83849 -20.43026 -20.40795 -20.25119 -20.24605
 Alpha  occ. eigenvalues --   -7.36812  -5.26787  -5.26602  -5.26411  -1.29217
 Alpha  occ. eigenvalues --   -1.22070  -1.05054  -0.99741  -0.65424  -0.58743
 Alpha  occ. eigenvalues --   -0.50825  -0.45150  -0.43201  -0.36174  -0.35034
 Alpha  occ. eigenvalues --   -0.28462  -0.23867  -0.22319  -0.18882  -0.16546
 Alpha virt. eigenvalues --    0.32840   0.40950   0.53342   0.54986   0.57784
 Alpha virt. eigenvalues --    0.59574   0.75527   0.79521   0.80800   0.84998
 Alpha virt. eigenvalues --    1.05891   1.13056   1.20197   1.22160   1.29599
 Alpha virt. eigenvalues --    1.31628   1.35553   1.36495   1.40911   1.44506
 Alpha virt. eigenvalues --    1.51927   1.55206   1.57618   1.61038   1.62030
 Alpha virt. eigenvalues --    1.67127   1.73913   1.77420   1.79821   1.81457
 Alpha virt. eigenvalues --    1.83918   1.89830   1.98009   2.16570   2.21194
 Alpha virt. eigenvalues --    2.21679   2.28612   2.29479   2.38469   2.39523
 Alpha virt. eigenvalues --    2.42275   2.43027   2.65743   2.68968   2.71305
 Alpha virt. eigenvalues --    2.76485   2.79874   2.95276   3.04413   3.15097
 Alpha virt. eigenvalues --    3.28990   3.40479   3.47943   4.05417   4.25697
 Alpha virt. eigenvalues --    4.31847   4.46183   4.54826
          Condensed to atoms (all electrons):
               1          2          3          4          5          6
     1  P   11.957971   0.595302   0.593251   0.285376   0.277339  -0.003843
     2  O    0.595302   8.380821  -0.058386  -0.036921  -0.044920   0.001289
     3  O    0.593251  -0.058386   8.426835  -0.041744  -0.051042  -0.001408
     4  O    0.285376  -0.036921  -0.041744   8.285382  -0.038254   0.260773
     5  O    0.277339  -0.044920  -0.051042  -0.038254   8.344819   0.001465
     6  H   -0.003843   0.001289  -0.001408   0.260773   0.001465   0.296424
     7  H   -0.003336   0.001560  -0.000906   0.002236   0.254684   0.000392
               7
     1  P   -0.003336
     2  O    0.001560
     3  O   -0.000906
     4  O    0.002236
     5  O    0.254684
     6  H    0.000392
     7  H    0.321932
 Mulliken charges:
               1
     1  P    1.297940
     2  O   -0.838745
     3  O   -0.866600
     4  O   -0.716848
     5  O   -0.744092
     6  H    0.444907
     7  H    0.423438
 Sum of Mulliken charges =  -1.00000
 Mulliken charges with hydrogens summed into heavy atoms:
               1
     1  P    1.297940
     2  O   -0.838745
     3  O   -0.866600
     4  O   -0.271941
     5  O   -0.320654
 DipInt: DoE/N= T F RetVal/Mat= T F Init=T NMatP=  1 IDeriv=0 Min/MaxMlt=  0  4
 Entering OneElI...
 OneElI was handed    33535073 working-precision words.
 Multipole integrals L=0 to 4 MinM= 0 MaxM= 0.
 Requested accuracy = 0.1000D-12
 ShPair: Thresh= 1.00D-13 NBox=     0 BxSize= 0.00D+00 RnKept= 6.24D+00
         NSMCal=                  325 NSMKep=                 319
 PrsmSu:  NPrtUS=   1 ThrOK=F IAlg=1 NPAlg=1 LenDen=           0.
 Prism:   IPart=     0 DynPar=F LinDyn=F Incr=           3.
 PRISM was handed    33494249 working-precision words and   319 shell-pairs
 IPart=  0 NShTot=         319 NBatch=          33 AvBLen=         9.7
 PrSmSu:  NxtVal=              4.
 Electronic moments (au):
        -50.00000000          3.01540001          0.15527184         -0.34706160
       -132.22339291       -124.30391205       -123.57657880         -0.05212177
         -0.08540048         -1.07963432         86.47681626        -37.82292341
       -168.00890514       -119.10683755         73.35650852         89.28274527
         59.52616210        -41.69274885         73.59211326         31.38592192
       -990.95144811       -867.23563794       -983.30165130         -5.02072755
       -167.99865355         14.35338858         87.50059966         63.92624826
        -62.08842526       -357.79492982       -265.56162830       -217.70703982
        -47.17041206         76.43342389        -26.31416798
 Electronic spatial extent (au):  <R**2>=            380.1039
 DipInt: DoE/N= F T RetVal/Mat= T F Init=T NMatP=  1 IDeriv=0 Min/MaxMlt=  0  4
 Nuclear    moments (au):
         49.00000000          0.00000000          0.00000000          0.00000000
        105.13429747         95.40901850         88.00364266          0.00000000
          0.00000000          0.00000000        -45.72724221         40.56741200
        149.64914434        125.00992065        -68.28473263        -80.29233780
        -52.09911482         38.02309627        -68.64672095        -30.34166088
        610.53798956        476.26846427        532.91424685         -9.75804551
        157.14664274         -1.17691650        -87.41702648        -62.23337136
         54.03687690        246.63988038        118.89131060         80.36983013
         36.00193709        -71.47554529         22.60209913
 Total      moments (au):
         -1.00000000          3.01540001          0.15527184         -0.34706160
        -27.08909544        -28.89489355        -35.57293614         -0.05212177
         -0.08540048         -1.07963432         40.74957405          2.74448858
        -18.35976080          5.90308310          5.07177589          8.99040747
          7.42704728         -3.66965258          4.94539231          1.04426103
       -380.41345855       -390.96717367       -450.38740446        -14.77877306
        -10.85201081         13.17647208          0.08357317          1.69287690
         -8.05154836       -111.15504944       -146.67031770       -137.33720969
        -11.16847497          4.95787860         -3.71206884
 Traceless Quadrup. (au):
          3.42987960          1.62408149         -5.05396110         -0.05212177
         -0.08540048         -1.07963432
 Charge=             -1.0000 electrons
 Dipole moment (field-independent basis, Debye):
    X=              7.6644    Y=              0.3947    Z=             -0.8821  Tot=              7.7251
 Quadrupole moment (field-independent basis, Debye-Ang):
   XX=            -36.4358   YY=            -38.8646   ZZ=            -47.8468
   XY=             -0.0701   XZ=             -0.1149   YZ=             -1.4521
 Traceless Quadrupole moment (field-independent basis, Debye-Ang):
   XX=              4.6133   YY=              2.1844   ZZ=             -6.7978
   XY=             -0.0701   XZ=             -0.1149   YZ=             -1.4521
 Octapole moment (field-independent basis, Debye-Ang**2):
  XXX=             29.0040  YYY=              1.9534  ZZZ=            -13.0678  XYY=              4.2016
  XXY=              3.6099  XXZ=              6.3990  XZZ=              5.2863  YZZ=             -2.6119
  YYZ=              3.5199  XYZ=              0.7433
 Hexadecapole moment (field-independent basis, Debye-Ang**3):
 XXXX=           -143.2819 YYYY=           -147.2570 ZZZZ=           -169.6375 XXXY=             -5.5664
 XXXZ=             -4.0874 YYYX=              4.9629 YYYZ=              0.0315 ZZZX=              0.6376
 ZZZY=             -3.0326 XXYY=            -41.8663 XXZZ=            -55.2431 YYZZ=            -51.7278
 XXYZ=             -4.2066 YYXZ=              1.8674 ZZXY=             -1.3981
 N-N= 2.768480134288D+02 E-N=-2.090728845157D+03  KE= 6.408880220242D+02
 Entering OneElI...
 OneElI was handed    33538301 working-precision words.
 Calculate electrostatic properties
    NBasis =    83  MinDer = 0  MaxDer = 0
    NGrid  =     7  NMatD  =   1
 Requested accuracy = 0.1000D-12
 ShPair: Thresh= 1.00D-13 NBox=     0 BxSize= 0.00D+00 RnKept= 6.24D+00
         NSMCal=                  325 NSMKep=                 315
 PrsmSu:  NPrtUS=   1 ThrOK=F IAlg=1 NPAlg=1 LenDen=           0.
 Prism:   IPart=     0 DynPar=F LinDyn=F Incr=          22.
 PRISM was handed    33498234 working-precision words and   315 shell-pairs
 IPart=  0 NShTot=        2205 NBatch=         315 AvBLen=         7.0
 PrSmSu:  NxtVal=             23.
 --------------------------------------------------------
       Center         ----      EFG at Nuclei      ----
                      3XX-RR        3YY-RR        3ZZ-RR
 --------------------------------------------------------
     1   Atom        0.174410     -0.559698      0.385289
     2   Atom       -0.845072      0.400068      0.445005
     3   Atom        0.291050      0.464964     -0.756014
     4   Atom       -1.258507      0.415747      0.842760
     5   Atom       -0.869947      0.097286      0.772661
     6   Atom       -0.343390      0.217896      0.125494
     7   Atom       -0.335337      0.212512      0.122825
 --------------------------------------------------------
                        XY            XZ            YZ
 --------------------------------------------------------
     1   Atom        0.080149      0.327819      0.257780
     2   Atom       -0.144603     -0.477762     -0.023353
     3   Atom        0.070660      0.408303     -0.269374
     4   Atom        0.278824     -0.836739     -0.319339
     5   Atom       -0.878516     -0.838015      0.261220
     6   Atom       -0.104119     -0.311384     -0.073939
     7   Atom       -0.140050     -0.315062     -0.041523
 --------------------------------------------------------


 ---------------------------------------------------------------------------------
              Nuclear Quadrupole Coupling Constant in Principal Axis System
 ---------------------------------------------------------------------------------

       Atom             a.u.   MegaHertz   Gauss  10(-4) cm-1        Axes


 ---------------------------------------------------------------------------------

 No NMR shielding tensors so no spin-rotation constants.
 Leave Link  601 at Fri Sep 30 06:21:35 2016, MaxMem=    33554432 cpu:         0.1
 FitSet:  NAtFit=     7 NAtPot=     7 NAtFrz=     0 MDM=    11 TotChg=  -1.00000
 Merz-Kollman atomic radii used.
 Atom Element Radius
    1    15    1.80
    2     8    1.40
    3     8    1.40
    4     8    1.40
    5     8    1.40
    6     1    1.20
    7     1    1.20
 Generate VDW surfaces: Layer= 4 Dens= 6 Start= 1.400 Inc= 0.200

 **********************************************************************

            Electrostatic Properties Using The SCF Density

 **********************************************************************

       Atomic Center    1 is at  -0.071327 -0.042289  0.011629
       Atomic Center    2 is at  -1.385600 -0.311932 -0.663107
       Atomic Center    3 is at  -0.271653  0.209481  1.487697
       Atomic Center    4 is at   0.912119 -1.125858 -0.249528
       Atomic Center    5 is at   0.495205  1.249570 -0.597815
       Atomic Center    6 is at   1.743124 -0.955590  0.177940
       Atomic Center    7 is at   1.326210  1.419838 -0.170347
      ESP Fit Center    8 is at   1.782698 -0.042289  1.718379
      ESP Fit Center    9 is at   1.732722  0.385278  1.718379
      ESP Fit Center   10 is at  -0.998339 -1.647921  1.718379
      ESP Fit Center   11 is at  -0.603067 -1.818425  1.718379
      ESP Fit Center   12 is at  -0.179128 -1.893177  1.718379
      ESP Fit Center   13 is at   0.250621 -1.868147  1.718379
      ESP Fit Center   14 is at   0.663015 -1.744684  1.718379
      ESP Fit Center   15 is at   1.035820 -1.529445  1.718379
      ESP Fit Center   16 is at   1.995148  0.382382  1.389938
      ESP Fit Center   17 is at   1.867362  0.789667  1.389938
      ESP Fit Center   18 is at   0.661369  1.936048  1.389938
      ESP Fit Center   19 is at  -2.084236 -0.673844  1.389938
      ESP Fit Center   20 is at  -1.915900 -1.066111  1.389938
      ESP Fit Center   21 is at  -1.672048 -1.416463  1.389938
      ESP Fit Center   22 is at  -1.362662 -1.710557  1.389938
      ESP Fit Center   23 is at  -1.000408 -1.936351  1.389938
      ESP Fit Center   24 is at  -0.600118 -2.084602  1.389938
      ESP Fit Center   25 is at  -0.178179 -2.149241  1.389938
      ESP Fit Center   26 is at   0.248134 -2.127621  1.389938
      ESP Fit Center   27 is at  -0.284259  2.255615  1.023901
      ESP Fit Center   28 is at  -0.702872  2.177363  1.023901
      ESP Fit Center   29 is at  -1.099979  2.023523  1.023901
      ESP Fit Center   30 is at  -1.462056  1.799334  1.023901
      ESP Fit Center   31 is at  -1.776774  1.512431  1.023901
      ESP Fit Center   32 is at  -2.033414  1.172584  1.023901
      ESP Fit Center   33 is at  -2.223238  0.791366  1.023901
      ESP Fit Center   34 is at  -2.339782  0.381758  1.023901
      ESP Fit Center   35 is at  -2.379075 -0.042289  1.023901
      ESP Fit Center   36 is at  -2.223238 -0.875944  1.023901
      ESP Fit Center   37 is at  -2.033414 -1.257162  1.023901
      ESP Fit Center   38 is at  -1.776774 -1.597010  1.023901
      ESP Fit Center   39 is at  -1.462056 -1.883913  1.023901
      ESP Fit Center   40 is at  -1.099979 -2.108101  1.023901
      ESP Fit Center   41 is at  -0.702872 -2.261941  1.023901
      ESP Fit Center   42 is at  -0.284259 -2.340194  1.023901
      ESP Fit Center   43 is at  -0.906844  2.253275  0.630252
      ESP Fit Center   44 is at  -1.292771  2.073314  0.630252
      ESP Fit Center   45 is at  -1.641585  1.829072  0.630252
      ESP Fit Center   46 is at  -1.942688  1.527969  0.630252
      ESP Fit Center   47 is at  -2.186930  1.179155  0.630252
      ESP Fit Center   48 is at  -2.366891  0.793228  0.630252
      ESP Fit Center   49 is at  -1.641585 -1.913651  0.630252
      ESP Fit Center   50 is at  -1.292771 -2.157893  0.630252
      ESP Fit Center   51 is at  -0.906844 -2.337854  0.630252
      ESP Fit Center   52 is at  -0.495530 -2.448065  0.630252
      ESP Fit Center   53 is at  -1.201965  2.200198  0.219729
      ESP Fit Center   54 is at  -1.564684  1.976863  0.219729
      ESP Fit Center   55 is at  -1.884442  1.695441  0.219729
      ESP Fit Center   56 is at  -2.152040  1.364027  0.219729
      ESP Fit Center   57 is at  -1.564684 -2.061442  0.219729
      ESP Fit Center   58 is at  -1.201965 -2.284777  0.219729
      ESP Fit Center   59 is at  -0.806720 -2.443600  0.219729
      ESP Fit Center   60 is at  -0.390318 -2.533341  0.219729
      ESP Fit Center   61 is at  -1.201965  2.200198 -0.196471
      ESP Fit Center   62 is at  -1.564684  1.976863 -0.196471
      ESP Fit Center   63 is at  -1.884442  1.695441 -0.196471
      ESP Fit Center   64 is at  -1.201965 -2.284777 -0.196471
      ESP Fit Center   65 is at  -0.806720 -2.443600 -0.196471
      ESP Fit Center   66 is at  -1.292771  2.073314 -0.606994
      ESP Fit Center   67 is at  -1.641585  1.829072 -0.606994
      ESP Fit Center   68 is at  -0.906844 -2.337854 -0.606994
      ESP Fit Center   69 is at  -0.495530 -2.448065 -0.606994
      ESP Fit Center   70 is at  -1.462056  1.799334 -1.000643
      ESP Fit Center   71 is at  -0.702872 -2.261941 -1.000643
      ESP Fit Center   72 is at  -1.362662  1.625978 -1.366680
      ESP Fit Center   73 is at  -0.600118 -2.084602 -1.366680
      ESP Fit Center   74 is at   1.782698 -0.042289 -1.695121
      ESP Fit Center   75 is at  -0.603067 -1.818425 -1.695121
      ESP Fit Center   76 is at  -0.179128 -1.893177 -1.695121
      ESP Fit Center   77 is at   1.476489 -0.042289 -1.977005
      ESP Fit Center   78 is at  -0.963922  1.222230 -1.977005
      ESP Fit Center   79 is at  -0.176953 -1.586497 -1.977005
      ESP Fit Center   80 is at   1.128061 -0.042289 -2.204645
      ESP Fit Center   81 is at  -0.671020  0.996411 -2.204645
      ESP Fit Center   82 is at  -0.279598 -1.223455 -2.204645
      ESP Fit Center   83 is at   0.136945 -1.223455 -2.204645
      ESP Fit Center   84 is at   0.528367 -1.080989 -2.204645
      ESP Fit Center   85 is at   0.847458 -0.813241 -2.204645
      ESP Fit Center   86 is at   1.055729 -0.452504 -2.204645
      ESP Fit Center   87 is at   0.746916 -0.042289 -2.371830
      ESP Fit Center   88 is at   0.637292  0.366832 -2.371830
      ESP Fit Center   89 is at  -0.480448  0.666330 -2.371830
      ESP Fit Center   90 is at  -0.480448 -0.750908 -2.371830
      ESP Fit Center   91 is at  -0.071327 -0.860532 -2.371830
      ESP Fit Center   92 is at   0.337795 -0.750908 -2.371830
      ESP Fit Center   93 is at   0.637292 -0.451411 -2.371830
      ESP Fit Center   94 is at   0.343452 -0.042289 -2.474001
      ESP Fit Center   95 is at   0.136063  0.316919 -2.474001
      ESP Fit Center   96 is at  -0.278716  0.316919 -2.474001
      ESP Fit Center   97 is at  -0.486105 -0.042289 -2.474001
      ESP Fit Center   98 is at  -0.278716 -0.401498 -2.474001
      ESP Fit Center   99 is at   0.136063 -0.401498 -2.474001
      ESP Fit Center  100 is at  -0.071327 -0.042289 -2.508371
      ESP Fit Center  101 is at  -2.518043 -0.100241  0.922566
      ESP Fit Center  102 is at  -2.518043 -0.523622  0.922566
      ESP Fit Center  103 is at  -2.365101 -0.918413  0.922566
      ESP Fit Center  104 is at  -2.610940  0.475546  0.648389
      ESP Fit Center  105 is at  -2.783163  0.098430  0.648389
      ESP Fit Center  106 is at  -2.842164 -0.311932  0.648389
      ESP Fit Center  107 is at  -2.783163 -0.722293  0.648389
      ESP Fit Center  108 is at  -2.610940 -1.099409  0.648389
      ESP Fit Center  109 is at  -2.339447 -1.412729  0.648389
      ESP Fit Center  110 is at  -1.990679 -1.636869  0.648389
      ESP Fit Center  111 is at  -2.467570  0.995945  0.316893
      ESP Fit Center  112 is at  -2.758834  0.685781  0.316893
      ESP Fit Center  113 is at  -2.963812  0.312927  0.316893
      ESP Fit Center  114 is at  -3.069625 -0.099190  0.316893
      ESP Fit Center  115 is at  -3.069625 -0.524673  0.316893
      ESP Fit Center  116 is at  -2.963812 -0.936790  0.316893
      ESP Fit Center  117 is at  -2.758834 -1.309644  0.316893
      ESP Fit Center  118 is at  -2.467570 -1.619808  0.316893
      ESP Fit Center  119 is at  -2.108322 -1.847794  0.316893
      ESP Fit Center  120 is at  -1.703663 -1.979276  0.316893
      ESP Fit Center  121 is at  -2.194390  1.367538 -0.057434
      ESP Fit Center  122 is at  -2.547829  1.145458 -0.057434
      ESP Fit Center  123 is at  -2.842989  0.850298 -0.057434
      ESP Fit Center  124 is at  -3.065070  0.496858 -0.057434
      ESP Fit Center  125 is at  -3.202935  0.102863 -0.057434
      ESP Fit Center  126 is at  -3.249671 -0.311932 -0.057434
      ESP Fit Center  127 is at  -3.202935 -0.726726 -0.057434
      ESP Fit Center  128 is at  -3.065070 -1.120722 -0.057434
      ESP Fit Center  129 is at  -2.842989 -1.474161 -0.057434
      ESP Fit Center  130 is at  -2.547829 -1.769321 -0.057434
      ESP Fit Center  131 is at  -2.194390 -1.991401 -0.057434
      ESP Fit Center  132 is at  -1.800395 -2.129266 -0.057434
      ESP Fit Center  133 is at  -2.107097  1.498888 -0.458231
      ESP Fit Center  134 is at  -2.479501  1.301452 -0.458231
      ESP Fit Center  135 is at  -2.800756  1.028575 -0.458231
      ESP Fit Center  136 is at  -3.055840  0.693018 -0.458231
      ESP Fit Center  137 is at  -3.232825  0.310471 -0.458231
      ESP Fit Center  138 is at  -3.323436 -0.101179 -0.458231
      ESP Fit Center  139 is at  -3.323436 -0.522684 -0.458231
      ESP Fit Center  140 is at  -3.232825 -0.934334 -0.458231
      ESP Fit Center  141 is at  -3.055840 -1.316882 -0.458231
      ESP Fit Center  142 is at  -2.800756 -1.652439 -0.458231
      ESP Fit Center  143 is at  -2.479501 -1.925315 -0.458231
      ESP Fit Center  144 is at  -2.107097 -2.122751 -0.458231
      ESP Fit Center  145 is at  -1.700956 -2.235516 -0.458231
      ESP Fit Center  146 is at  -1.280069 -2.258336 -0.458231
      ESP Fit Center  147 is at  -2.107097  1.498888 -0.867983
      ESP Fit Center  148 is at  -2.479501  1.301452 -0.867983
      ESP Fit Center  149 is at  -2.800756  1.028575 -0.867983
      ESP Fit Center  150 is at  -3.055840  0.693018 -0.867983
      ESP Fit Center  151 is at  -3.232825  0.310471 -0.867983
      ESP Fit Center  152 is at  -3.323436 -0.101179 -0.867983
      ESP Fit Center  153 is at  -3.323436 -0.522684 -0.867983
      ESP Fit Center  154 is at  -3.232825 -0.934334 -0.867983
      ESP Fit Center  155 is at  -3.055840 -1.316882 -0.867983
      ESP Fit Center  156 is at  -2.800756 -1.652439 -0.867983
      ESP Fit Center  157 is at  -2.479501 -1.925315 -0.867983
      ESP Fit Center  158 is at  -2.107097 -2.122751 -0.867983
      ESP Fit Center  159 is at  -1.700956 -2.235516 -0.867983
      ESP Fit Center  160 is at  -1.280069 -2.258336 -0.867983
      ESP Fit Center  161 is at  -1.800395  1.505403 -1.268781
      ESP Fit Center  162 is at  -2.194390  1.367538 -1.268781
      ESP Fit Center  163 is at  -2.547829  1.145458 -1.268781
      ESP Fit Center  164 is at  -2.842989  0.850298 -1.268781
      ESP Fit Center  165 is at  -3.065070  0.496858 -1.268781
      ESP Fit Center  166 is at  -3.202935  0.102863 -1.268781
      ESP Fit Center  167 is at  -3.249671 -0.311932 -1.268781
      ESP Fit Center  168 is at  -3.202935 -0.726726 -1.268781
      ESP Fit Center  169 is at  -3.065070 -1.120722 -1.268781
      ESP Fit Center  170 is at  -2.842989 -1.474161 -1.268781
      ESP Fit Center  171 is at  -2.547829 -1.769321 -1.268781
      ESP Fit Center  172 is at  -2.194390 -1.991401 -1.268781
      ESP Fit Center  173 is at  -1.800395 -2.129266 -1.268781
      ESP Fit Center  174 is at  -1.385600 -2.176002 -1.268781
      ESP Fit Center  175 is at  -0.970805 -2.129266 -1.268781
      ESP Fit Center  176 is at  -1.703663  1.355412 -1.643107
      ESP Fit Center  177 is at  -2.108322  1.223931 -1.643107
      ESP Fit Center  178 is at  -2.467570  0.995945 -1.643107
      ESP Fit Center  179 is at  -2.758834  0.685781 -1.643107
      ESP Fit Center  180 is at  -2.963812  0.312927 -1.643107
      ESP Fit Center  181 is at  -3.069625 -0.099190 -1.643107
      ESP Fit Center  182 is at  -3.069625 -0.524673 -1.643107
      ESP Fit Center  183 is at  -2.963812 -0.936790 -1.643107
      ESP Fit Center  184 is at  -2.758834 -1.309644 -1.643107
      ESP Fit Center  185 is at  -2.467570 -1.619808 -1.643107
      ESP Fit Center  186 is at  -2.108322 -1.847794 -1.643107
      ESP Fit Center  187 is at  -1.703663 -1.979276 -1.643107
      ESP Fit Center  188 is at  -1.279019 -2.005992 -1.643107
      ESP Fit Center  189 is at  -0.861072 -1.926264 -1.643107
      ESP Fit Center  190 is at  -1.178309  1.129807 -1.974603
      ESP Fit Center  191 is at  -1.592891  1.129807 -1.974603
      ESP Fit Center  192 is at  -1.990679  1.013006 -1.974603
      ESP Fit Center  193 is at  -2.339447  0.788866 -1.974603
      ESP Fit Center  194 is at  -2.610940  0.475546 -1.974603
      ESP Fit Center  195 is at  -2.783163  0.098430 -1.974603
      ESP Fit Center  196 is at  -2.842164 -0.311932 -1.974603
      ESP Fit Center  197 is at  -2.783163 -0.722293 -1.974603
      ESP Fit Center  198 is at  -2.610940 -1.099409 -1.974603
      ESP Fit Center  199 is at  -2.339447 -1.412729 -1.974603
      ESP Fit Center  200 is at  -1.990679 -1.636869 -1.974603
      ESP Fit Center  201 is at  -1.592891 -1.753670 -1.974603
      ESP Fit Center  202 is at  -1.178309 -1.753670 -1.974603
      ESP Fit Center  203 is at  -0.780522 -1.636869 -1.974603
      ESP Fit Center  204 is at  -1.279302  0.835213 -2.248781
      ESP Fit Center  205 is at  -1.700876  0.796148 -2.248781
      ESP Fit Center  206 is at  -2.079871  0.607431 -2.248781
      ESP Fit Center  207 is at  -2.365101  0.294549 -2.248781
      ESP Fit Center  208 is at  -2.518043 -0.100241 -2.248781
      ESP Fit Center  209 is at  -2.518043 -0.523622 -2.248781
      ESP Fit Center  210 is at  -2.365101 -0.918413 -2.248781
      ESP Fit Center  211 is at  -2.079871 -1.231295 -2.248781
      ESP Fit Center  212 is at  -1.700876 -1.420012 -2.248781
      ESP Fit Center  213 is at  -1.279302 -1.459076 -2.248781
      ESP Fit Center  214 is at  -0.872083 -1.343213 -2.248781
      ESP Fit Center  215 is at  -0.534218 -1.088069 -2.248781
      ESP Fit Center  216 is at  -0.588396 -0.311932 -2.453656
      ESP Fit Center  217 is at  -0.695201  0.086670 -2.453656
      ESP Fit Center  218 is at  -0.986998  0.378467 -2.453656
      ESP Fit Center  219 is at  -1.385600  0.485272 -2.453656
      ESP Fit Center  220 is at  -1.784202  0.378467 -2.453656
      ESP Fit Center  221 is at  -2.075999  0.086670 -2.453656
      ESP Fit Center  222 is at  -2.182804 -0.311932 -2.453656
      ESP Fit Center  223 is at  -2.075999 -0.710533 -2.453656
      ESP Fit Center  224 is at  -1.784202 -1.002330 -2.453656
      ESP Fit Center  225 is at  -1.385600 -1.109135 -2.453656
      ESP Fit Center  226 is at  -0.986998 -1.002330 -2.453656
      ESP Fit Center  227 is at  -0.695201 -0.710533 -2.453656
      ESP Fit Center  228 is at  -0.978093 -0.311932 -2.580277
      ESP Fit Center  229 is at  -1.181847  0.040980 -2.580277
      ESP Fit Center  230 is at  -1.589354  0.040980 -2.580277
      ESP Fit Center  231 is at  -1.793107 -0.311932 -2.580277
      ESP Fit Center  232 is at  -1.589354 -0.664843 -2.580277
      ESP Fit Center  233 is at  -1.181847 -0.664843 -2.580277
      ESP Fit Center  234 is at  -1.385600 -0.311932 -2.623107
      ESP Fit Center  235 is at  -0.271653  0.209481  3.447697
      ESP Fit Center  236 is at   0.135854  0.209481  3.404867
      ESP Fit Center  237 is at  -0.067900  0.562393  3.404867
      ESP Fit Center  238 is at  -0.475407  0.562393  3.404867
      ESP Fit Center  239 is at  -0.679160  0.209481  3.404867
      ESP Fit Center  240 is at  -0.475407 -0.143430  3.404867
      ESP Fit Center  241 is at  -0.067900 -0.143430  3.404867
      ESP Fit Center  242 is at   0.525551  0.209481  3.278247
      ESP Fit Center  243 is at   0.418746  0.608083  3.278247
      ESP Fit Center  244 is at   0.126949  0.899880  3.278247
      ESP Fit Center  245 is at  -0.271653  1.006685  3.278247
      ESP Fit Center  246 is at  -0.670255  0.899880  3.278247
      ESP Fit Center  247 is at  -0.962052  0.608083  3.278247
      ESP Fit Center  248 is at  -1.068857  0.209481  3.278247
      ESP Fit Center  249 is at  -0.962052 -0.189121  3.278247
      ESP Fit Center  250 is at  -0.670255 -0.480918  3.278247
      ESP Fit Center  251 is at  -0.271653 -0.587723  3.278247
      ESP Fit Center  252 is at   0.126949 -0.480918  3.278247
      ESP Fit Center  253 is at   0.418746 -0.189121  3.278247
      ESP Fit Center  254 is at   0.880406  0.209481  3.073371
      ESP Fit Center  255 is at   0.802610  0.625653  3.073371
      ESP Fit Center  256 is at   0.579729  0.985618  3.073371
      ESP Fit Center  257 is at   0.241864  1.240762  3.073371
      ESP Fit Center  258 is at  -0.165355  1.356626  3.073371
      ESP Fit Center  259 is at  -0.586929  1.317561  3.073371
      ESP Fit Center  260 is at  -0.965924  1.128844  3.073371
      ESP Fit Center  261 is at  -1.251153  0.815962  3.073371
      ESP Fit Center  262 is at  -1.404096  0.421172  3.073371
      ESP Fit Center  263 is at  -1.404096 -0.002209  3.073371
      ESP Fit Center  264 is at  -1.251153 -0.397000  3.073371
      ESP Fit Center  265 is at  -0.965924 -0.709882  3.073371
      ESP Fit Center  266 is at  -0.586929 -0.898599  3.073371
      ESP Fit Center  267 is at  -0.165355 -0.937663  3.073371
      ESP Fit Center  268 is at   0.241864 -0.821800  3.073371
      ESP Fit Center  269 is at   0.579729 -0.566656  3.073371
      ESP Fit Center  270 is at   0.802610 -0.206691  3.073371
      ESP Fit Center  271 is at   1.184911  0.209481  2.799193
      ESP Fit Center  272 is at   1.125910  0.619843  2.799193
      ESP Fit Center  273 is at   0.953686  0.996959  2.799193
      ESP Fit Center  274 is at   0.682193  1.310279  2.799193
      ESP Fit Center  275 is at   0.333425  1.534418  2.799193
      ESP Fit Center  276 is at  -0.064362  1.651219  2.799193
      ESP Fit Center  277 is at  -0.478944  1.651219  2.799193
      ESP Fit Center  278 is at  -0.876732  1.534418  2.799193
      ESP Fit Center  279 is at  -1.225500  1.310279  2.799193
      ESP Fit Center  280 is at  -1.496993  0.996959  2.799193
      ESP Fit Center  281 is at  -1.669216  0.619843  2.799193
      ESP Fit Center  282 is at  -1.728217  0.209481  2.799193
      ESP Fit Center  283 is at  -1.669216 -0.200880  2.799193
      ESP Fit Center  284 is at  -1.496993 -0.577997  2.799193
      ESP Fit Center  285 is at  -1.225500 -0.891316  2.799193
      ESP Fit Center  286 is at  -0.876732 -1.115456  2.799193
      ESP Fit Center  287 is at  -0.478944 -1.232257  2.799193
      ESP Fit Center  288 is at  -0.064362 -1.232257  2.799193
      ESP Fit Center  289 is at   0.333425 -1.115456  2.799193
      ESP Fit Center  290 is at   0.682193 -0.891316  2.799193
      ESP Fit Center  291 is at   0.953686 -0.577997  2.799193
      ESP Fit Center  292 is at   1.125910 -0.200880  2.799193
      ESP Fit Center  293 is at   1.425757  0.209481  2.467697
      ESP Fit Center  294 is at   1.372429  0.631610  2.467697
      ESP Fit Center  295 is at   1.215798  1.027215  2.467697
      ESP Fit Center  296 is at   0.965705  1.371438  2.467697
      ESP Fit Center  297 is at   0.637865  1.642652  2.467697
      ESP Fit Center  298 is at   0.252875  1.823814  2.467697
      ESP Fit Center  299 is at  -0.165072  1.903542  2.467697
      ESP Fit Center  300 is at  -0.589716  1.876825  2.467697
      ESP Fit Center  301 is at  -0.994375  1.745344  2.467697
      ESP Fit Center  302 is at  -1.353623  1.517358  2.467697
      ESP Fit Center  303 is at  -1.644886  1.207194  2.467697
      ESP Fit Center  304 is at  -1.849865  0.834339  2.467697
      ESP Fit Center  305 is at  -1.955678  0.422223  2.467697
      ESP Fit Center  306 is at  -1.955678 -0.003261  2.467697
      ESP Fit Center  307 is at  -1.849865 -0.415377  2.467697
      ESP Fit Center  308 is at  -1.644886 -0.788231  2.467697
      ESP Fit Center  309 is at  -1.353623 -1.098395  2.467697
      ESP Fit Center  310 is at  -0.994375 -1.326381  2.467697
      ESP Fit Center  311 is at  -0.589716 -1.457863  2.467697
      ESP Fit Center  312 is at  -0.165072 -1.484579  2.467697
      ESP Fit Center  313 is at   0.252875 -1.404851  2.467697
      ESP Fit Center  314 is at   0.637865 -1.223689  2.467697
      ESP Fit Center  315 is at   0.965705 -0.952476  2.467697
      ESP Fit Center  316 is at   1.215798 -0.608252  2.467697
      ESP Fit Center  317 is at   1.372429 -0.212647  2.467697
      ESP Fit Center  318 is at   1.592418  0.209481  2.093371
      ESP Fit Center  319 is at   1.545682  0.624276  2.093371
      ESP Fit Center  320 is at   1.407817  1.018271  2.093371
      ESP Fit Center  321 is at   1.185736  1.371710  2.093371
      ESP Fit Center  322 is at   0.890576  1.666870  2.093371
      ESP Fit Center  323 is at   0.537137  1.888951  2.093371
      ESP Fit Center  324 is at   0.143142  2.026816  2.093371
      ESP Fit Center  325 is at  -0.271653  2.073552  2.093371
      ESP Fit Center  326 is at  -0.686448  2.026816  2.093371
      ESP Fit Center  327 is at  -1.080443  1.888951  2.093371
      ESP Fit Center  328 is at  -1.433882  1.666870  2.093371
      ESP Fit Center  329 is at  -1.729042  1.371710  2.093371
      ESP Fit Center  330 is at  -1.951123  1.018271  2.093371
      ESP Fit Center  331 is at  -2.088988  0.624276  2.093371
      ESP Fit Center  332 is at  -2.135724  0.209481  2.093371
      ESP Fit Center  333 is at  -2.088988 -0.205314  2.093371
      ESP Fit Center  334 is at  -1.951123 -0.599309  2.093371
      ESP Fit Center  335 is at  -1.729042 -0.952748  2.093371
      ESP Fit Center  336 is at  -1.433882 -1.247908  2.093371
      ESP Fit Center  337 is at  -1.080443 -1.469988  2.093371
      ESP Fit Center  338 is at  -0.686448 -1.607853  2.093371
      ESP Fit Center  339 is at  -0.271653 -1.654590  2.093371
      ESP Fit Center  340 is at   0.143142 -1.607853  2.093371
      ESP Fit Center  341 is at   0.537137 -1.469988  2.093371
      ESP Fit Center  342 is at   0.890576 -1.247908  2.093371
      ESP Fit Center  343 is at   1.185736 -0.952748  2.093371
      ESP Fit Center  344 is at   1.407817 -0.599309  2.093371
      ESP Fit Center  345 is at   1.545682 -0.205314  2.093371
      ESP Fit Center  346 is at   1.497450  1.027955  1.692573
      ESP Fit Center  347 is at   1.280142  1.389125  1.692573
      ESP Fit Center  348 is at   0.990273  1.695135  1.692573
      ESP Fit Center  349 is at   0.641398  1.931679  1.692573
      ESP Fit Center  350 is at   0.249830  2.087694  1.692573
      ESP Fit Center  351 is at  -0.166122  2.155885  1.692573
      ESP Fit Center  352 is at  -0.587009  2.133066  1.692573
      ESP Fit Center  353 is at  -0.993150  2.020301  1.692573
      ESP Fit Center  354 is at  -1.365554  1.822865  1.692573
      ESP Fit Center  355 is at  -1.686809  1.549988  1.692573
      ESP Fit Center  356 is at  -1.941893  1.214431  1.692573
      ESP Fit Center  357 is at  -2.118878  0.831884  1.692573
      ESP Fit Center  358 is at  -2.209489  0.420234  1.692573
      ESP Fit Center  359 is at  -2.209489 -0.001271  1.692573
      ESP Fit Center  360 is at  -2.118878 -0.412921  1.692573
      ESP Fit Center  361 is at  -1.941893 -0.795469  1.692573
      ESP Fit Center  362 is at  -1.686809 -1.131026  1.692573
      ESP Fit Center  363 is at  -1.365554 -1.403902  1.692573
      ESP Fit Center  364 is at  -0.166122  2.155885  1.282822
      ESP Fit Center  365 is at  -0.587009  2.133066  1.282822
      ESP Fit Center  366 is at  -0.993150  2.020301  1.282822
      ESP Fit Center  367 is at  -1.365554  1.822865  1.282822
      ESP Fit Center  368 is at  -1.686809  1.549988  1.282822
      ESP Fit Center  369 is at  -1.941893  1.214431  1.282822
      ESP Fit Center  370 is at  -2.118878  0.831884  1.282822
      ESP Fit Center  371 is at  -2.209489  0.420234  1.282822
      ESP Fit Center  372 is at   0.912119 -1.923062  1.541021
      ESP Fit Center  373 is at   0.596843 -2.233938  1.336145
      ESP Fit Center  374 is at   1.018417 -2.273003  1.336145
      ESP Fit Center  375 is at   1.425636 -2.157139  1.336145
      ESP Fit Center  376 is at   0.307040 -2.450795  1.061968
      ESP Fit Center  377 is at   0.704828 -2.567596  1.061968
      ESP Fit Center  378 is at   1.119410 -2.567596  1.061968
      ESP Fit Center  379 is at   1.517197 -2.450795  1.061968
      ESP Fit Center  380 is at   0.189397 -2.661721  0.730472
      ESP Fit Center  381 is at   0.594056 -2.793202  0.730472
      ESP Fit Center  382 is at   1.018700 -2.819919  0.730472
      ESP Fit Center  383 is at   1.436647 -2.740191  0.730472
      ESP Fit Center  384 is at   1.821637 -2.559029  0.730472
      ESP Fit Center  385 is at  -0.250110 -2.583248  0.356145
      ESP Fit Center  386 is at   0.103329 -2.805328  0.356145
      ESP Fit Center  387 is at   0.497324 -2.943193  0.356145
      ESP Fit Center  388 is at   0.912119 -2.989929  0.356145
      ESP Fit Center  389 is at   1.326914 -2.943193  0.356145
      ESP Fit Center  390 is at   1.720909 -2.805328  0.356145
      ESP Fit Center  391 is at  -0.181782 -2.739242 -0.044652
      ESP Fit Center  392 is at   0.190622 -2.936678 -0.044652
      ESP Fit Center  393 is at   0.596763 -3.049443 -0.044652
      ESP Fit Center  394 is at   1.017650 -3.072262 -0.044652
      ESP Fit Center  395 is at   1.433602 -3.004071 -0.044652
      ESP Fit Center  396 is at   1.825170 -2.848056 -0.044652
      ESP Fit Center  397 is at   2.174045 -2.611513 -0.044652
      ESP Fit Center  398 is at  -0.181782 -2.739242 -0.454404
      ESP Fit Center  399 is at   0.190622 -2.936678 -0.454404
      ESP Fit Center  400 is at   0.596763 -3.049443 -0.454404
      ESP Fit Center  401 is at   1.017650 -3.072262 -0.454404
      ESP Fit Center  402 is at   1.433602 -3.004071 -0.454404
      ESP Fit Center  403 is at   1.825170 -2.848056 -0.454404
      ESP Fit Center  404 is at   2.174045 -2.611513 -0.454404
      ESP Fit Center  405 is at  -0.250110 -2.583248 -0.855202
      ESP Fit Center  406 is at   0.103329 -2.805328 -0.855202
      ESP Fit Center  407 is at   0.497324 -2.943193 -0.855202
      ESP Fit Center  408 is at   0.912119 -2.989929 -0.855202
      ESP Fit Center  409 is at   1.326914 -2.943193 -0.855202
      ESP Fit Center  410 is at   1.720909 -2.805328 -0.855202
      ESP Fit Center  411 is at   2.074348 -2.583248 -0.855202
      ESP Fit Center  412 is at   2.369508 -2.288087 -0.855202
      ESP Fit Center  413 is at   2.399570 -0.308125 -1.229528
      ESP Fit Center  414 is at   2.149477  0.036099 -1.229528
      ESP Fit Center  415 is at  -0.169851 -2.433735 -1.229528
      ESP Fit Center  416 is at   0.189397 -2.661721 -1.229528
      ESP Fit Center  417 is at   0.594056 -2.793202 -1.229528
      ESP Fit Center  418 is at   1.018700 -2.819919 -1.229528
      ESP Fit Center  419 is at   1.436647 -2.740191 -1.229528
      ESP Fit Center  420 is at   1.821637 -2.559029 -1.229528
      ESP Fit Center  421 is at   2.149477 -2.287815 -1.229528
      ESP Fit Center  422 is at   2.399570 -1.943592 -1.229528
      ESP Fit Center  423 is at   2.556201 -1.547987 -1.229528
      ESP Fit Center  424 is at   2.368683 -1.125858 -1.561024
      ESP Fit Center  425 is at   2.309682 -0.715497 -1.561024
      ESP Fit Center  426 is at   2.137458 -0.338380 -1.561024
      ESP Fit Center  427 is at  -0.041728 -2.226656 -1.561024
      ESP Fit Center  428 is at   0.307040 -2.450795 -1.561024
      ESP Fit Center  429 is at   0.704828 -2.567596 -1.561024
      ESP Fit Center  430 is at   1.119410 -2.567596 -1.561024
      ESP Fit Center  431 is at   1.517197 -2.450795 -1.561024
      ESP Fit Center  432 is at   1.865965 -2.226656 -1.561024
      ESP Fit Center  433 is at   2.137458 -1.913336 -1.561024
      ESP Fit Center  434 is at   2.309682 -1.536220 -1.561024
      ESP Fit Center  435 is at   2.064178 -1.125858 -1.835202
      ESP Fit Center  436 is at   1.986382 -0.709687 -1.835202
      ESP Fit Center  437 is at   1.763501 -0.349721 -1.835202
      ESP Fit Center  438 is at   0.217848 -2.045221 -1.835202
      ESP Fit Center  439 is at   0.596843 -2.233938 -1.835202
      ESP Fit Center  440 is at   1.018417 -2.273003 -1.835202
      ESP Fit Center  441 is at   1.425636 -2.157139 -1.835202
      ESP Fit Center  442 is at   1.763501 -1.901996 -1.835202
      ESP Fit Center  443 is at   1.986382 -1.542030 -1.835202
      ESP Fit Center  444 is at   1.709323 -1.125858 -2.040077
      ESP Fit Center  445 is at   1.602518 -0.727256 -2.040077
      ESP Fit Center  446 is at   0.221720 -1.524460 -2.040077
      ESP Fit Center  447 is at   0.513517 -1.816257 -2.040077
      ESP Fit Center  448 is at   0.912119 -1.923062 -2.040077
      ESP Fit Center  449 is at   1.310721 -1.816257 -2.040077
      ESP Fit Center  450 is at   1.602518 -1.524460 -2.040077
      ESP Fit Center  451 is at   1.319626 -1.125858 -2.166698
      ESP Fit Center  452 is at   1.115872 -0.772947 -2.166698
      ESP Fit Center  453 is at   0.708365 -1.478770 -2.166698
      ESP Fit Center  454 is at   1.115872 -1.478770 -2.166698
      ESP Fit Center  455 is at   0.912119 -1.125858 -2.209528
      ESP Fit Center  456 is at   0.179929  2.357650  0.987858
      ESP Fit Center  457 is at   0.287914  2.691308  0.713681
      ESP Fit Center  458 is at  -0.109874  2.574507  0.713681
      ESP Fit Center  459 is at  -0.458642  2.350368  0.713681
      ESP Fit Center  460 is at   0.601786  2.943630  0.382185
      ESP Fit Center  461 is at   0.177142  2.916914  0.382185
      ESP Fit Center  462 is at  -0.227517  2.785432  0.382185
      ESP Fit Center  463 is at  -0.586765  2.557447  0.382185
      ESP Fit Center  464 is at   0.910000  3.066905  0.007858
      ESP Fit Center  465 is at   0.495205  3.113641  0.007858
      ESP Fit Center  466 is at   0.080410  3.066905  0.007858
      ESP Fit Center  467 is at  -0.313585  2.929040  0.007858
      ESP Fit Center  468 is at  -0.667024  2.706959  0.007858
      ESP Fit Center  469 is at  -0.962184  2.411799  0.007858
      ESP Fit Center  470 is at   1.016688  3.127782 -0.392940
      ESP Fit Center  471 is at   0.600736  3.195974 -0.392940
      ESP Fit Center  472 is at   0.179849  3.173154 -0.392940
      ESP Fit Center  473 is at  -0.226292  3.060390 -0.392940
      ESP Fit Center  474 is at  -0.598696  2.862953 -0.392940
      ESP Fit Center  475 is at  -0.919951  2.590077 -0.392940
      ESP Fit Center  476 is at  -1.175035  2.254520 -0.392940
      ESP Fit Center  477 is at   1.016688  3.127782 -0.802691
      ESP Fit Center  478 is at   0.600736  3.195974 -0.802691
      ESP Fit Center  479 is at   0.179849  3.173154 -0.802691
      ESP Fit Center  480 is at  -0.226292  3.060390 -0.802691
      ESP Fit Center  481 is at  -0.598696  2.862953 -0.802691
      ESP Fit Center  482 is at  -0.919951  2.590077 -0.802691
      ESP Fit Center  483 is at  -1.175035  2.254520 -0.802691
      ESP Fit Center  484 is at   1.657434  2.706959 -1.203489
      ESP Fit Center  485 is at   1.303995  2.929040 -1.203489
      ESP Fit Center  486 is at   0.910000  3.066905 -1.203489
      ESP Fit Center  487 is at   0.495205  3.113641 -1.203489
      ESP Fit Center  488 is at   0.080410  3.066905 -1.203489
      ESP Fit Center  489 is at  -0.313585  2.929040 -1.203489
      ESP Fit Center  490 is at  -0.667024  2.706959 -1.203489
      ESP Fit Center  491 is at  -0.962184  2.411799 -1.203489
      ESP Fit Center  492 is at  -1.184265  2.058360 -1.203489
      ESP Fit Center  493 is at   1.982657  2.067303 -1.577815
      ESP Fit Center  494 is at   1.732563  2.411527 -1.577815
      ESP Fit Center  495 is at   1.404723  2.682740 -1.577815
      ESP Fit Center  496 is at   1.019733  2.863903 -1.577815
      ESP Fit Center  497 is at   0.601786  2.943630 -1.577815
      ESP Fit Center  498 is at   0.177142  2.916914 -1.577815
      ESP Fit Center  499 is at  -0.227517  2.785432 -1.577815
      ESP Fit Center  500 is at  -0.586765  2.557447 -1.577815
      ESP Fit Center  501 is at  -0.878028  2.247282 -1.577815
      ESP Fit Center  502 is at  -1.083007  1.874428 -1.577815
      ESP Fit Center  503 is at   1.982657  0.431837 -1.577815
      ESP Fit Center  504 is at   2.139288  0.827441 -1.577815
      ESP Fit Center  505 is at   1.951769  1.249570 -1.909311
      ESP Fit Center  506 is at   1.892768  1.659931 -1.909311
      ESP Fit Center  507 is at   1.720544  2.037048 -1.909311
      ESP Fit Center  508 is at   1.449051  2.350368 -1.909311
      ESP Fit Center  509 is at   1.100283  2.574507 -1.909311
      ESP Fit Center  510 is at   0.702496  2.691308 -1.909311
      ESP Fit Center  511 is at   0.287914  2.691308 -1.909311
      ESP Fit Center  512 is at  -0.109874  2.574507 -1.909311
      ESP Fit Center  513 is at  -0.458642  2.350368 -1.909311
      ESP Fit Center  514 is at  -0.730135  2.037048 -1.909311
      ESP Fit Center  515 is at  -0.902358  1.659931 -1.909311
      ESP Fit Center  516 is at   1.720544  0.462092 -1.909311
      ESP Fit Center  517 is at   1.892768  0.839209 -1.909311
      ESP Fit Center  518 is at   1.647264  1.249570 -2.183489
      ESP Fit Center  519 is at   1.569468  1.665742 -2.183489
      ESP Fit Center  520 is at   1.346587  2.025707 -2.183489
      ESP Fit Center  521 is at   1.008722  2.280851 -2.183489
      ESP Fit Center  522 is at   0.601504  2.396715 -2.183489
      ESP Fit Center  523 is at   0.179929  2.357650 -2.183489
      ESP Fit Center  524 is at  -0.199066  2.168933 -2.183489
      ESP Fit Center  525 is at  -0.484295  1.856051 -2.183489
      ESP Fit Center  526 is at  -0.637238  1.461260 -2.183489
      ESP Fit Center  527 is at   1.346587  0.473433 -2.183489
      ESP Fit Center  528 is at   1.569468  0.833398 -2.183489
      ESP Fit Center  529 is at   1.292409  1.249570 -2.388365
      ESP Fit Center  530 is at   1.185604  1.648172 -2.388365
      ESP Fit Center  531 is at   0.893807  1.939969 -2.388365
      ESP Fit Center  532 is at   0.495205  2.046774 -2.388365
      ESP Fit Center  533 is at   0.096603  1.939969 -2.388365
      ESP Fit Center  534 is at  -0.195194  1.648172 -2.388365
      ESP Fit Center  535 is at  -0.301999  1.249570 -2.388365
      ESP Fit Center  536 is at  -0.195194  0.850968 -2.388365
      ESP Fit Center  537 is at   0.893807  0.559171 -2.388365
      ESP Fit Center  538 is at   1.185604  0.850968 -2.388365
      ESP Fit Center  539 is at   0.902712  1.249570 -2.514985
      ESP Fit Center  540 is at   0.698958  1.602481 -2.514985
      ESP Fit Center  541 is at   0.291452  1.602481 -2.514985
      ESP Fit Center  542 is at   0.087698  1.249570 -2.514985
      ESP Fit Center  543 is at   0.291452  0.896659 -2.514985
      ESP Fit Center  544 is at   0.698958  0.896659 -2.514985
      ESP Fit Center  545 is at   0.495205  1.249570 -2.557815
      ESP Fit Center  546 is at   1.743124 -0.955590  1.857940
      ESP Fit Center  547 is at   2.177940 -0.955590  1.800696
      ESP Fit Center  548 is at   1.960532 -0.579028  1.800696
      ESP Fit Center  549 is at   1.525716 -1.332152  1.800696
      ESP Fit Center  550 is at   1.960532 -1.332152  1.800696
      ESP Fit Center  551 is at   2.583124 -0.955590  1.632863
      ESP Fit Center  552 is at   2.470585 -0.535590  1.632863
      ESP Fit Center  553 is at   2.163124 -0.228129  1.632863
      ESP Fit Center  554 is at   1.323124 -1.683051  1.632863
      ESP Fit Center  555 is at   1.743124 -1.795590  1.632863
      ESP Fit Center  556 is at   2.163124 -1.683051  1.632863
      ESP Fit Center  557 is at   2.470585 -1.375590  1.632863
      ESP Fit Center  558 is at   2.931063 -0.955590  1.365880
      ESP Fit Center  559 is at   2.850844 -0.526457  1.365880
      ESP Fit Center  560 is at   2.621022 -0.155280  1.365880
      ESP Fit Center  561 is at   2.272634  0.107810  1.365880
      ESP Fit Center  562 is at   1.852733 -2.138462  1.365880
      ESP Fit Center  563 is at   2.272634 -2.018990  1.365880
      ESP Fit Center  564 is at   2.621022 -1.755900  1.365880
      ESP Fit Center  565 is at   2.850844 -1.384723  1.365880
      ESP Fit Center  566 is at   3.198047 -0.955590  1.017940
      ESP Fit Center  567 is at   3.133408 -0.526744  1.017940
      ESP Fit Center  568 is at   2.945237 -0.136003  1.017940
      ESP Fit Center  569 is at   2.650253  0.181914  1.017940
      ESP Fit Center  570 is at   2.274667  0.398759  1.017940
      ESP Fit Center  571 is at   1.851850 -2.406444  1.017940
      ESP Fit Center  572 is at   2.274667 -2.309939  1.017940
      ESP Fit Center  573 is at   2.650253 -2.093094  1.017940
      ESP Fit Center  574 is at   2.945237 -1.775177  1.017940
      ESP Fit Center  575 is at   3.133408 -1.384436  1.017940
      ESP Fit Center  576 is at   3.365879 -0.955590  0.612756
      ESP Fit Center  577 is at   3.310585 -0.535590  0.612756
      ESP Fit Center  578 is at   3.148471 -0.144212  0.612756
      ESP Fit Center  579 is at   2.890585  0.191871  0.612756
      ESP Fit Center  580 is at   2.554502  0.449757  0.612756
      ESP Fit Center  581 is at   2.163124 -2.523051  0.612756
      ESP Fit Center  582 is at   2.554502 -2.360937  0.612756
      ESP Fit Center  583 is at   2.890585 -2.103051  0.612756
      ESP Fit Center  584 is at   3.148471 -1.766968  0.612756
      ESP Fit Center  585 is at   3.310585 -1.375590  0.612756
      ESP Fit Center  586 is at   3.423124 -0.955590  0.177940
      ESP Fit Center  587 is at   3.370344 -0.537791  0.177940
      ESP Fit Center  588 is at   3.215319 -0.146244  0.177940
      ESP Fit Center  589 is at   2.967791  0.194449  0.177940
      ESP Fit Center  590 is at   2.262272 -2.553365  0.177940
      ESP Fit Center  591 is at   2.643313 -2.374061  0.177940
      ESP Fit Center  592 is at   2.967791 -2.105629  0.177940
      ESP Fit Center  593 is at   3.215319 -1.764936  0.177940
      ESP Fit Center  594 is at   3.370344 -1.373389  0.177940
      ESP Fit Center  595 is at   3.365879 -0.955590 -0.256876
      ESP Fit Center  596 is at   3.310585 -0.535590 -0.256876
      ESP Fit Center  597 is at   3.148471 -0.144212 -0.256876
      ESP Fit Center  598 is at   2.890585  0.191871 -0.256876
      ESP Fit Center  599 is at   2.554502 -2.360937 -0.256876
      ESP Fit Center  600 is at   2.890585 -2.103051 -0.256876
      ESP Fit Center  601 is at   3.148471 -1.766968 -0.256876
      ESP Fit Center  602 is at   3.310585 -1.375590 -0.256876
      ESP Fit Center  603 is at   3.198047 -0.955590 -0.662060
      ESP Fit Center  604 is at   3.133408 -0.526744 -0.662060
      ESP Fit Center  605 is at   2.945237 -0.136003 -0.662060
      ESP Fit Center  606 is at   2.650253  0.181914 -0.662060
      ESP Fit Center  607 is at   2.650253 -2.093094 -0.662060
      ESP Fit Center  608 is at   2.945237 -1.775177 -0.662060
      ESP Fit Center  609 is at   3.133408 -1.384436 -0.662060
      ESP Fit Center  610 is at   2.931063 -0.955590 -1.009999
      ESP Fit Center  611 is at   2.850844 -0.526457 -1.009999
      ESP Fit Center  612 is at   2.621022 -0.155280 -1.009999
      ESP Fit Center  613 is at   2.272634  0.107810 -1.009999
      ESP Fit Center  614 is at   2.621022 -1.755900 -1.009999
      ESP Fit Center  615 is at   2.850844 -1.384723 -1.009999
      ESP Fit Center  616 is at   2.583124 -0.955590 -1.276982
      ESP Fit Center  617 is at   1.761026  1.419838  1.452408
      ESP Fit Center  618 is at   1.543618  1.796400  1.452408
      ESP Fit Center  619 is at   1.108802  1.796400  1.452408
      ESP Fit Center  620 is at   2.166210  1.419838  1.284576
      ESP Fit Center  621 is at   2.053671  1.839838  1.284576
      ESP Fit Center  622 is at   1.746210  2.147300  1.284576
      ESP Fit Center  623 is at   1.326210  2.259838  1.284576
      ESP Fit Center  624 is at   0.906210  2.147300  1.284576
      ESP Fit Center  625 is at   2.053671  0.999838  1.284576
      ESP Fit Center  626 is at   2.514149  1.419838  1.017592
      ESP Fit Center  627 is at   2.433930  1.848972  1.017592
      ESP Fit Center  628 is at   2.204108  2.220148  1.017592
      ESP Fit Center  629 is at   1.855720  2.483238  1.017592
      ESP Fit Center  630 is at   1.435819  2.602710  1.017592
      ESP Fit Center  631 is at   1.001115  2.562429  1.017592
      ESP Fit Center  632 is at   0.610317  2.367834  1.017592
      ESP Fit Center  633 is at   2.204108  0.619529  1.017592
      ESP Fit Center  634 is at   2.433930  0.990705  1.017592
      ESP Fit Center  635 is at   2.781133  1.419838  0.669653
      ESP Fit Center  636 is at   2.716495  1.848684  0.669653
      ESP Fit Center  637 is at   2.528324  2.239426  0.669653
      ESP Fit Center  638 is at   2.233339  2.557343  0.669653
      ESP Fit Center  639 is at   1.857753  2.774188  0.669653
      ESP Fit Center  640 is at   1.434936  2.870693  0.669653
      ESP Fit Center  641 is at   1.002459  2.838283  0.669653
      ESP Fit Center  642 is at   2.528324  0.600251  0.669653
      ESP Fit Center  643 is at   2.716495  0.990992  0.669653
      ESP Fit Center  644 is at   2.948965  1.419838  0.264469
      ESP Fit Center  645 is at   2.893671  1.839838  0.264469
      ESP Fit Center  646 is at   2.731557  2.231216  0.264469
      ESP Fit Center  647 is at   2.473671  2.567300  0.264469
      ESP Fit Center  648 is at   2.137588  2.825186  0.264469
      ESP Fit Center  649 is at   1.746210  2.987300  0.264469
      ESP Fit Center  650 is at   1.326210  3.042594  0.264469
      ESP Fit Center  651 is at   0.906210  2.987300  0.264469
      ESP Fit Center  652 is at   2.731557  0.608461  0.264469
      ESP Fit Center  653 is at   2.893671  0.999838  0.264469
      ESP Fit Center  654 is at   3.006210  1.419838 -0.170347
      ESP Fit Center  655 is at   2.953430  1.837637 -0.170347
      ESP Fit Center  656 is at   2.798405  2.229185 -0.170347
      ESP Fit Center  657 is at   2.550877  2.569878 -0.170347
      ESP Fit Center  658 is at   2.226399  2.838309 -0.170347
      ESP Fit Center  659 is at   1.845359  3.017613 -0.170347
      ESP Fit Center  660 is at   1.431698  3.096523 -0.170347
      ESP Fit Center  661 is at   2.798405  0.610492 -0.170347
      ESP Fit Center  662 is at   2.953430  1.002039 -0.170347
      ESP Fit Center  663 is at   2.948965  1.419838 -0.605163
      ESP Fit Center  664 is at   2.893671  1.839838 -0.605163
      ESP Fit Center  665 is at   2.731557  2.231216 -0.605163
      ESP Fit Center  666 is at   2.473671  2.567300 -0.605163
      ESP Fit Center  667 is at   2.137588  2.825186 -0.605163
      ESP Fit Center  668 is at   1.746210  2.987300 -0.605163
      ESP Fit Center  669 is at   1.326210  3.042594 -0.605163
      ESP Fit Center  670 is at   2.731557  0.608461 -0.605163
      ESP Fit Center  671 is at   2.893671  0.999838 -0.605163
      ESP Fit Center  672 is at   2.781133  1.419838 -1.010347
      ESP Fit Center  673 is at   2.716495  1.848684 -1.010347
      ESP Fit Center  674 is at   2.528324  2.239426 -1.010347
      ESP Fit Center  675 is at   2.233339  2.557343 -1.010347
      ESP Fit Center  676 is at   1.857753  2.774188 -1.010347
      ESP Fit Center  677 is at   2.233339  0.282334 -1.010347
      ESP Fit Center  678 is at   2.528324  0.600251 -1.010347
      ESP Fit Center  679 is at   2.716495  0.990992 -1.010347
      ESP Fit Center  680 is at   2.514149  1.419838 -1.358286
      ESP Fit Center  681 is at   2.433930  1.848972 -1.358286
      ESP Fit Center  682 is at   2.204108  2.220148 -1.358286
      ESP Fit Center  683 is at   1.855720  2.483238 -1.358286
      ESP Fit Center  684 is at   2.204108  0.619529 -1.358286
      ESP Fit Center  685 is at   2.433930  0.990705 -1.358286
      ESP Fit Center  686 is at   2.166210  1.419838 -1.625270
      ESP Fit Center  687 is at  -0.071327 -1.928288  2.188188
      ESP Fit Center  688 is at   0.348348 -1.881002  2.188188
      ESP Fit Center  689 is at   0.746978 -1.741516  2.188188
      ESP Fit Center  690 is at   1.104575 -1.516823  2.188188
      ESP Fit Center  691 is at   1.403207 -1.218190  2.188188
      ESP Fit Center  692 is at   1.627900 -0.860594  2.188188
      ESP Fit Center  693 is at   1.767386 -0.461964  2.188188
      ESP Fit Center  694 is at   2.105232 -0.042289  1.897628
      ESP Fit Center  695 is at   2.065899  0.369627  1.897628
      ESP Fit Center  696 is at   1.949321  0.766656  1.897628
      ESP Fit Center  697 is at   1.759711  1.134447  1.897628
      ESP Fit Center  698 is at  -1.496669 -1.687223  1.897628
      ESP Fit Center  699 is at  -1.159606 -1.927244  1.897628
      ESP Fit Center  700 is at  -0.783209 -2.099139  1.897628
      ESP Fit Center  701 is at  -0.381083 -2.196694  1.897628
      ESP Fit Center  702 is at   0.032238 -2.216383  1.897628
      ESP Fit Center  703 is at   0.441817 -2.157494  1.897628
      ESP Fit Center  704 is at   0.832849 -2.022157  1.897628
      ESP Fit Center  705 is at   1.191201 -1.815262  1.897628
      ESP Fit Center  706 is at   2.316634  0.367168  1.568675
      ESP Fit Center  707 is at   2.213086  0.764845  1.568675
      ESP Fit Center  708 is at   0.832034  2.205810  1.568675
      ESP Fit Center  709 is at  -2.485409 -0.247758  1.568675
      ESP Fit Center  710 is at  -2.415960 -0.652784  1.568675
      ESP Fit Center  711 is at  -2.279060 -1.040248  1.568675
      ESP Fit Center  712 is at  -2.078648 -1.399002  1.568675
      ESP Fit Center  713 is at  -1.820489 -1.718726  1.568675
      ESP Fit Center  714 is at  -1.512010 -1.990222  1.568675
      ESP Fit Center  715 is at  -1.162085 -2.205679  1.568675
      ESP Fit Center  716 is at  -0.780781 -2.358900  1.568675
      ESP Fit Center  717 is at  -0.379067 -2.445476  1.568675
      ESP Fit Center  718 is at   0.031500 -2.462916  1.568675
      ESP Fit Center  719 is at   0.439109 -2.410720  1.568675
      ESP Fit Center  720 is at  -0.071327  2.577451  1.208024
      ESP Fit Center  721 is at  -0.481144  2.545198  1.208024
      ESP Fit Center  722 is at  -0.880871  2.449232  1.208024
      ESP Fit Center  723 is at  -1.260664  2.291916  1.208024
      ESP Fit Center  724 is at  -1.611171  2.077125  1.208024
      ESP Fit Center  725 is at  -1.923763  1.810147  1.208024
      ESP Fit Center  726 is at  -2.190741  1.497555  1.208024
      ESP Fit Center  727 is at  -2.405532  1.147048  1.208024
      ESP Fit Center  728 is at  -2.562848  0.767255  1.208024
      ESP Fit Center  729 is at  -2.658813  0.367528  1.208024
      ESP Fit Center  730 is at  -2.691067 -0.042289  1.208024
      ESP Fit Center  731 is at  -2.658813 -0.452107  1.208024
      ESP Fit Center  732 is at  -2.562848 -0.851834  1.208024
      ESP Fit Center  733 is at  -2.405532 -1.231626  1.208024
      ESP Fit Center  734 is at  -2.190741 -1.582134  1.208024
      ESP Fit Center  735 is at  -1.923763 -1.894725  1.208024
      ESP Fit Center  736 is at  -1.611171 -2.161704  1.208024
      ESP Fit Center  737 is at  -1.260664 -2.376495  1.208024
      ESP Fit Center  738 is at  -0.880871 -2.533810  1.208024
      ESP Fit Center  739 is at  -0.481144 -2.629776  1.208024
      ESP Fit Center  740 is at  -0.071327 -2.662029  1.208024
      ESP Fit Center  741 is at  -0.686228  2.651768  0.823019
      ESP Fit Center  742 is at  -1.080888  2.530031  0.823019
      ESP Fit Center  743 is at  -1.452996  2.350833  0.823019
      ESP Fit Center  744 is at  -1.794241  2.118177  0.823019
      ESP Fit Center  745 is at  -2.096998  1.837259  0.823019
      ESP Fit Center  746 is at  -2.354505  1.514355  0.823019
      ESP Fit Center  747 is at  -2.561010  1.156679  0.823019
      ESP Fit Center  748 is at  -2.711899  0.772219  0.823019
      ESP Fit Center  749 is at  -2.096998 -1.921838  0.823019
      ESP Fit Center  750 is at  -1.794241 -2.202755  0.823019
      ESP Fit Center  751 is at  -1.452996 -2.435412  0.823019
      ESP Fit Center  752 is at  -1.080888 -2.614610  0.823019
      ESP Fit Center  753 is at  -0.686228 -2.736346  0.823019
      ESP Fit Center  754 is at  -0.277831 -2.797902  0.823019
      ESP Fit Center  755 is at  -0.991757  2.655713  0.421496
      ESP Fit Center  756 is at  -1.374781  2.492946  0.421496
      ESP Fit Center  757 is at  -1.730023  2.276144  0.421496
      ESP Fit Center  758 is at  -2.049914  2.009929  0.421496
      ESP Fit Center  759 is at  -2.327634  1.699975  0.421496
      ESP Fit Center  760 is at  -2.557265  1.352887  0.421496
      ESP Fit Center  761 is at  -1.730023 -2.360723  0.421496
      ESP Fit Center  762 is at  -1.374781 -2.577524  0.421496
      ESP Fit Center  763 is at  -0.991757 -2.740292  0.421496
      ESP Fit Center  764 is at  -0.589116 -2.845556  0.421496
      ESP Fit Center  765 is at  -1.267722  2.577451  0.011629
      ESP Fit Center  766 is at  -1.628372  2.380521  0.011629
      ESP Fit Center  767 is at  -1.957325  2.134269  0.011629
      ESP Fit Center  768 is at  -2.247885  1.843710  0.011629
      ESP Fit Center  769 is at  -2.494137  1.514756  0.011629
      ESP Fit Center  770 is at  -1.628372 -2.465099  0.011629
      ESP Fit Center  771 is at  -1.267722 -2.662029  0.011629
      ESP Fit Center  772 is at  -0.882716 -2.805629  0.011629
      ESP Fit Center  773 is at  -0.481193 -2.892975  0.011629
      ESP Fit Center  774 is at  -1.374781  2.492946 -0.398238
      ESP Fit Center  775 is at  -1.730023  2.276144 -0.398238
      ESP Fit Center  776 is at  -2.049914  2.009929 -0.398238
      ESP Fit Center  777 is at  -1.374781 -2.577524 -0.398238
      ESP Fit Center  778 is at  -0.991757 -2.740292 -0.398238
      ESP Fit Center  779 is at  -0.589116 -2.845556 -0.398238
      ESP Fit Center  780 is at  -1.452996  2.350833 -0.799761
      ESP Fit Center  781 is at  -1.794241  2.118177 -0.799761
      ESP Fit Center  782 is at  -2.096998  1.837259 -0.799761
      ESP Fit Center  783 is at  -1.080888 -2.614610 -0.799761
      ESP Fit Center  784 is at  -0.686228 -2.736346 -0.799761
      ESP Fit Center  785 is at  -1.611171  2.077125 -1.184766
      ESP Fit Center  786 is at  -1.923763  1.810147 -1.184766
      ESP Fit Center  787 is at  -0.880871 -2.533810 -1.184766
      ESP Fit Center  788 is at  -0.481144 -2.629776 -1.184766
      ESP Fit Center  789 is at  -1.512010  1.905643 -1.545417
      ESP Fit Center  790 is at  -0.780781 -2.358900 -1.545417
      ESP Fit Center  791 is at  -0.379067 -2.445476 -1.545417
      ESP Fit Center  792 is at   2.105232 -0.042289 -1.874370
      ESP Fit Center  793 is at  -1.496669  1.602644 -1.874370
      ESP Fit Center  794 is at  -0.783209 -2.099139 -1.874370
      ESP Fit Center  795 is at  -0.381083 -2.196694 -1.874370
      ESP Fit Center  796 is at   1.814672 -0.042289 -2.164930
      ESP Fit Center  797 is at  -1.247228  1.432244 -2.164930
      ESP Fit Center  798 is at  -0.491001 -1.881002 -2.164930
      ESP Fit Center  799 is at  -0.071327 -1.928288 -2.164930
      ESP Fit Center  800 is at   1.485719 -0.042289 -2.411181
      ESP Fit Center  801 is at  -0.969244  1.229770 -2.411181
      ESP Fit Center  802 is at  -0.592749 -1.509432 -2.411181
      ESP Fit Center  803 is at  -0.177583 -1.595705 -2.411181
      ESP Fit Center  804 is at   0.245464 -1.566768 -2.411181
      ESP Fit Center  805 is at   1.427980 -0.462375 -2.411181
      ESP Fit Center  806 is at   1.125069 -0.042289 -2.608111
      ESP Fit Center  807 is at   1.052917  0.366902 -2.608111
      ESP Fit Center  808 is at  -0.669524  0.993819 -2.608111
      ESP Fit Center  809 is at  -0.987818  0.726739 -2.608111
      ESP Fit Center  810 is at  -0.279078 -1.220509 -2.608111
      ESP Fit Center  811 is at   0.136425 -1.220509 -2.608111
      ESP Fit Center  812 is at   0.526871 -1.078398 -2.608111
      ESP Fit Center  813 is at   0.845165 -0.811317 -2.608111
      ESP Fit Center  814 is at   1.052917 -0.451481 -2.608111
      ESP Fit Center  815 is at   0.740063 -0.042289 -2.751711
      ESP Fit Center  816 is at   0.631358  0.363406 -2.751711
      ESP Fit Center  817 is at  -0.071327  0.769100 -2.751711
      ESP Fit Center  818 is at  -0.477021  0.660395 -2.751711
      ESP Fit Center  819 is at  -0.774011  0.363406 -2.751711
      ESP Fit Center  820 is at  -0.477021 -0.744973 -2.751711
      ESP Fit Center  821 is at  -0.071327 -0.853679 -2.751711
      ESP Fit Center  822 is at   0.334368 -0.744973 -2.751711
      ESP Fit Center  823 is at   0.631358 -0.447984 -2.751711
      ESP Fit Center  824 is at   0.338540 -0.042289 -2.839057
      ESP Fit Center  825 is at   0.133607  0.312666 -2.839057
      ESP Fit Center  826 is at  -0.276260  0.312666 -2.839057
      ESP Fit Center  827 is at  -0.481193 -0.042289 -2.839057
      ESP Fit Center  828 is at  -0.276260 -0.397244 -2.839057
      ESP Fit Center  829 is at   0.133607 -0.397244 -2.839057
      ESP Fit Center  830 is at  -0.071327 -0.042289 -2.868371
      ESP Fit Center  831 is at  -2.833550  0.113225  0.992273
      ESP Fit Center  832 is at  -2.894678 -0.311932  0.992273
      ESP Fit Center  833 is at  -2.833550 -0.737088  0.992273
      ESP Fit Center  834 is at  -2.655118 -1.127801  0.992273
      ESP Fit Center  835 is at  -2.879084  0.670348  0.686794
      ESP Fit Center  836 is at  -3.065356  0.299449  0.686794
      ESP Fit Center  837 is at  -3.161072 -0.104409  0.686794
      ESP Fit Center  838 is at  -3.161072 -0.519454  0.686794
      ESP Fit Center  839 is at  -3.065356 -0.923313  0.686794
      ESP Fit Center  840 is at  -2.879084 -1.294211  0.686794
      ESP Fit Center  841 is at  -2.612297 -1.612155  0.686794
      ESP Fit Center  842 is at  -2.279379 -1.860003  0.686794
      ESP Fit Center  843 is at  -2.727318  1.178197  0.335347
      ESP Fit Center  844 is at  -3.007813  0.866675  0.335347
      ESP Fit Center  845 is at  -3.217410  0.503643  0.335347
      ESP Fit Center  846 is at  -3.346948  0.104966  0.335347
      ESP Fit Center  847 is at  -3.390766 -0.311932  0.335347
      ESP Fit Center  848 is at  -3.346948 -0.728829  0.335347
      ESP Fit Center  849 is at  -3.217410 -1.127506  0.335347
      ESP Fit Center  850 is at  -3.007813 -1.490538  0.335347
      ESP Fit Center  851 is at  -2.727318 -1.802060  0.335347
      ESP Fit Center  852 is at  -2.388183 -2.048456  0.335347
      ESP Fit Center  853 is at  -2.005230 -2.218958  0.335347
      ESP Fit Center  854 is at  -2.582570  1.479461 -0.050102
      ESP Fit Center  855 is at  -2.909054  1.211523 -0.050102
      ESP Fit Center  856 is at  -3.176993  0.885039 -0.050102
      ESP Fit Center  857 is at  -3.376089  0.512556 -0.050102
      ESP Fit Center  858 is at  -3.498692  0.108388 -0.050102
      ESP Fit Center  859 is at  -3.540090 -0.311932 -0.050102
      ESP Fit Center  860 is at  -3.498692 -0.732252 -0.050102
      ESP Fit Center  861 is at  -3.376089 -1.136419 -0.050102
      ESP Fit Center  862 is at  -3.176993 -1.508902 -0.050102
      ESP Fit Center  863 is at  -2.909054 -1.835386 -0.050102
      ESP Fit Center  864 is at  -2.582570 -2.103324 -0.050102
      ESP Fit Center  865 is at  -2.210088 -2.302420 -0.050102
      ESP Fit Center  866 is at  -1.805920 -2.425023 -0.050102
      ESP Fit Center  867 is at  -2.500822  1.619690 -0.456426
      ESP Fit Center  868 is at  -2.846231  1.373726 -0.456426
      ESP Fit Center  869 is at  -3.138848  1.066838 -0.456426
      ESP Fit Center  870 is at  -3.368098  0.710117 -0.456426
      ESP Fit Center  871 is at  -3.525696  0.316457 -0.456426
      ESP Fit Center  872 is at  -3.605945 -0.099914 -0.456426
      ESP Fit Center  873 is at  -3.605945 -0.523949 -0.456426
      ESP Fit Center  874 is at  -3.525696 -0.940320 -0.456426
      ESP Fit Center  875 is at  -3.368098 -1.333980 -0.456426
      ESP Fit Center  876 is at  -3.138848 -1.690701 -0.456426
      ESP Fit Center  877 is at  -2.846231 -1.997589 -0.456426
      ESP Fit Center  878 is at  -2.500822 -2.243553 -0.456426
      ESP Fit Center  879 is at  -2.115107 -2.419703 -0.456426
      ESP Fit Center  880 is at  -1.703025 -2.519673 -0.456426
      ESP Fit Center  881 is at  -2.115107  1.795840 -0.869788
      ESP Fit Center  882 is at  -2.500822  1.619690 -0.869788
      ESP Fit Center  883 is at  -2.846231  1.373726 -0.869788
      ESP Fit Center  884 is at  -3.138848  1.066838 -0.869788
      ESP Fit Center  885 is at  -3.368098  0.710117 -0.869788
      ESP Fit Center  886 is at  -3.525696  0.316457 -0.869788
      ESP Fit Center  887 is at  -3.605945 -0.099914 -0.869788
      ESP Fit Center  888 is at  -3.605945 -0.523949 -0.869788
      ESP Fit Center  889 is at  -3.525696 -0.940320 -0.869788
      ESP Fit Center  890 is at  -3.368098 -1.333980 -0.869788
      ESP Fit Center  891 is at  -3.138848 -1.690701 -0.869788
      ESP Fit Center  892 is at  -2.846231 -1.997589 -0.869788
      ESP Fit Center  893 is at  -2.500822 -2.243553 -0.869788
      ESP Fit Center  894 is at  -2.115107 -2.419703 -0.869788
      ESP Fit Center  895 is at  -1.703025 -2.519673 -0.869788
      ESP Fit Center  896 is at  -1.279471 -2.539850 -0.869788
      ESP Fit Center  897 is at  -2.210088  1.678557 -1.276112
      ESP Fit Center  898 is at  -2.582570  1.479461 -1.276112
      ESP Fit Center  899 is at  -2.909054  1.211523 -1.276112
      ESP Fit Center  900 is at  -3.176993  0.885039 -1.276112
      ESP Fit Center  901 is at  -3.376089  0.512556 -1.276112
      ESP Fit Center  902 is at  -3.498692  0.108388 -1.276112
      ESP Fit Center  903 is at  -3.540090 -0.311932 -1.276112
      ESP Fit Center  904 is at  -3.498692 -0.732252 -1.276112
      ESP Fit Center  905 is at  -3.376089 -1.136419 -1.276112
      ESP Fit Center  906 is at  -3.176993 -1.508902 -1.276112
      ESP Fit Center  907 is at  -2.909054 -1.835386 -1.276112
      ESP Fit Center  908 is at  -2.582570 -2.103324 -1.276112
      ESP Fit Center  909 is at  -2.210088 -2.302420 -1.276112
      ESP Fit Center  910 is at  -1.805920 -2.425023 -1.276112
      ESP Fit Center  911 is at  -1.385600 -2.466421 -1.276112
      ESP Fit Center  912 is at  -2.005230  1.595094 -1.661561
      ESP Fit Center  913 is at  -2.388183  1.424593 -1.661561
      ESP Fit Center  914 is at  -2.727318  1.178197 -1.661561
      ESP Fit Center  915 is at  -3.007813  0.866675 -1.661561
      ESP Fit Center  916 is at  -3.217410  0.503643 -1.661561
      ESP Fit Center  917 is at  -3.346948  0.104966 -1.661561
      ESP Fit Center  918 is at  -3.390766 -0.311932 -1.661561
      ESP Fit Center  919 is at  -3.346948 -0.728829 -1.661561
      ESP Fit Center  920 is at  -3.217410 -1.127506 -1.661561
      ESP Fit Center  921 is at  -3.007813 -1.490538 -1.661561
      ESP Fit Center  922 is at  -2.727318 -1.802060 -1.661561
      ESP Fit Center  923 is at  -2.388183 -2.048456 -1.661561
      ESP Fit Center  924 is at  -2.005230 -2.218958 -1.661561
      ESP Fit Center  925 is at  -1.595197 -2.306113 -1.661561
      ESP Fit Center  926 is at  -1.176003 -2.306113 -1.661561
      ESP Fit Center  927 is at  -1.489537  1.472603 -2.013009
      ESP Fit Center  928 is at  -1.898278  1.400531 -2.013009
      ESP Fit Center  929 is at  -2.279379  1.236140 -2.013009
      ESP Fit Center  930 is at  -2.612297  0.988291 -2.013009
      ESP Fit Center  931 is at  -2.879084  0.670348 -2.013009
      ESP Fit Center  932 is at  -3.065356  0.299449 -2.013009
      ESP Fit Center  933 is at  -3.161072 -0.104409 -2.013009
      ESP Fit Center  934 is at  -3.161072 -0.519454 -2.013009
      ESP Fit Center  935 is at  -3.065356 -0.923313 -2.013009
      ESP Fit Center  936 is at  -2.879084 -1.294211 -2.013009
      ESP Fit Center  937 is at  -2.612297 -1.612155 -2.013009
      ESP Fit Center  938 is at  -2.279379 -1.860003 -2.013009
      ESP Fit Center  939 is at  -1.898278 -2.024394 -2.013009
      ESP Fit Center  940 is at  -1.489537 -2.096466 -2.013009
      ESP Fit Center  941 is at  -1.075194 -2.072333 -2.013009
      ESP Fit Center  942 is at  -1.600364  1.181786 -2.318487
      ESP Fit Center  943 is at  -2.012494  1.060774 -2.318487
      ESP Fit Center  944 is at  -2.373836  0.828554 -2.318487
      ESP Fit Center  945 is at  -2.655118  0.503938 -2.318487
      ESP Fit Center  946 is at  -2.833550  0.113225 -2.318487
      ESP Fit Center  947 is at  -2.894678 -0.311932 -2.318487
      ESP Fit Center  948 is at  -2.833550 -0.737088 -2.318487
      ESP Fit Center  949 is at  -2.655118 -1.127801 -2.318487
      ESP Fit Center  950 is at  -2.373836 -1.452417 -2.318487
[...]
 2816 Fit      -0.174123
 2817 Fit      -0.172635
 2818 Fit      -0.171361
 2819 Fit      -0.170233
 2820 Fit      -0.169230
 2821 Fit      -0.168356
 2822 Fit      -0.167626
 2823 Fit      -0.167049
 2824 Fit      -0.166632
 2825 Fit      -0.166369
 2826 Fit      -0.166246
 2827 Fit      -0.166240
 2828 Fit      -0.166327
 2829 Fit      -0.166486
 2830 Fit      -0.166710
 2831 Fit      -0.167028
 2832 Fit      -0.167530
 2833 Fit      -0.173439
 2834 Fit      -0.171802
 2835 Fit      -0.170461
 2836 Fit      -0.169302
 2837 Fit      -0.168280
 2838 Fit      -0.167386
 2839 Fit      -0.166628
 2840 Fit      -0.166018
 2841 Fit      -0.165564
 2842 Fit      -0.165266
 2843 Fit      -0.165115
 2844 Fit      -0.165094
 2845 Fit      -0.165177
 2846 Fit      -0.165342
 2847 Fit      -0.165575
 2848 Fit      -0.165883
 2849 Fit      -0.166315
 2850 Fit      -0.171850
 2851 Fit      -0.170263
 2852 Fit      -0.168960
 2853 Fit      -0.167841
 2854 Fit      -0.166868
 2855 Fit      -0.166036
 2856 Fit      -0.165357
 2857 Fit      -0.164840
 2858 Fit      -0.164491
 2859 Fit      -0.164304
 2860 Fit      -0.164263
 2861 Fit      -0.164341
 2862 Fit      -0.164513
 2863 Fit      -0.164759
 2864 Fit      -0.165078
 2865 Fit      -0.165507
 2866 Fit      -0.166137
 2867 Fit      -0.171668
 2868 Fit      -0.169897
 2869 Fit      -0.168482
 2870 Fit      -0.167295
 2871 Fit      -0.166278
 2872 Fit      -0.165418
 2873 Fit      -0.164726
 2874 Fit      -0.164213
 2875 Fit      -0.163884
 2876 Fit      -0.163729
 2877 Fit      -0.163727
 2878 Fit      -0.163847
 2879 Fit      -0.164058
 2880 Fit      -0.164339
 2881 Fit      -0.164698
 2882 Fit      -0.165181
 2883 Fit      -0.169658
 2884 Fit      -0.168193
 2885 Fit      -0.166967
 2886 Fit      -0.165924
 2887 Fit      -0.165049
 2888 Fit      -0.164351
 2889 Fit      -0.163843
 2890 Fit      -0.163532
 2891 Fit      -0.163402
 2892 Fit      -0.163426
 2893 Fit      -0.163564
 2894 Fit      -0.163779
 2895 Fit      -0.164049
 2896 Fit      -0.164374
 2897 Fit      -0.168841
 2898 Fit      -0.167510
 2899 Fit      -0.166345
 2900 Fit      -0.165344
 2901 Fit      -0.164520
 2902 Fit      -0.163897
 2903 Fit      -0.163490
 2904 Fit      -0.163291
 2905 Fit      -0.163266
 2906 Fit      -0.163364
 2907 Fit      -0.163528
 2908 Fit      -0.163712
 2909 Fit      -0.163874
 2910 Fit      -0.167528
 2911 Fit      -0.166464
 2912 Fit      -0.165427
 2913 Fit      -0.164534
 2914 Fit      -0.163859
 2915 Fit      -0.163439
 2916 Fit      -0.163259
 2917 Fit      -0.163251
 2918 Fit      -0.163320
 2919 Fit      -0.163370
 2920 Fit      -0.166199
 2921 Fit      -0.165511
 2922 Fit      -0.164630
 2923 Fit      -0.163896
 2924 Fit      -0.163459
 2925 Fit      -0.163292
 2926 Fit      -0.163249
 2927 Fit      -0.163193
 2928 Fit      -0.164769
 2929 Fit      -0.164667
 2930 Fit      -0.163948
 2931 Fit      -0.163510
 2932 Fit      -0.163445
 2933 Fit      -0.163962
 2934 Fit      -0.153887
 2935 Fit      -0.151588
 2936 Fit      -0.152508
 2937 Fit      -0.154775
 2938 Fit      -0.156194
 2939 Fit      -0.155422
 2940 Fit      -0.153091
 2941 Fit      -0.149165
 2942 Fit      -0.149602
 2943 Fit      -0.151238
 2944 Fit      -0.153506
 2945 Fit      -0.155804
 2946 Fit      -0.157638
 2947 Fit      -0.158617
 2948 Fit      -0.158468
 2949 Fit      -0.157145
 2950 Fit      -0.154911
 2951 Fit      -0.152326
 2952 Fit      -0.150170
 2953 Fit      -0.146461
 2954 Fit      -0.146778
 2955 Fit      -0.148054
 2956 Fit      -0.150020
 2957 Fit      -0.152353
 2958 Fit      -0.154758
 2959 Fit      -0.157011
 2960 Fit      -0.158945
 2961 Fit      -0.160411
 2962 Fit      -0.161254
 2963 Fit      -0.161343
 2964 Fit      -0.160609
 2965 Fit      -0.159087
 2966 Fit      -0.156910
 2967 Fit      -0.154288
 2968 Fit      -0.151526
 2969 Fit      -0.149030
 2970 Fit      -0.147238
 2971 Fit      -0.143283
 2972 Fit      -0.143595
 2973 Fit      -0.144735
 2974 Fit      -0.146532
 2975 Fit      -0.148780
 2976 Fit      -0.151258
 2977 Fit      -0.153775
 2978 Fit      -0.156192
 2979 Fit      -0.158424
 2980 Fit      -0.160413
 2981 Fit      -0.162096
 2982 Fit      -0.163391
 2983 Fit      -0.164199
 2984 Fit      -0.164426
 2985 Fit      -0.164010
 2986 Fit      -0.162945
 2987 Fit      -0.161278
 2988 Fit      -0.159093
 2989 Fit      -0.156496
 2990 Fit      -0.153610
 2991 Fit      -0.150619
 2992 Fit      -0.147792
 2993 Fit      -0.145457
 2994 Fit      -0.143903
 2995 Fit      -0.139389
 2996 Fit      -0.139793
 2997 Fit      -0.140993
 2998 Fit      -0.142853
 2999 Fit      -0.145214
 3000 Fit      -0.147890
 3001 Fit      -0.150692
 3002 Fit      -0.153461
 3003 Fit      -0.156095
 3004 Fit      -0.158544
 3005 Fit      -0.160792
 3006 Fit      -0.162825
 3007 Fit      -0.164611
 3008 Fit      -0.166092
 3009 Fit      -0.167184
 3010 Fit      -0.167794
 3011 Fit      -0.167845
 3012 Fit      -0.167292
 3013 Fit      -0.166140
 3014 Fit      -0.164436
 3015 Fit      -0.162253
 3016 Fit      -0.159664
 3017 Fit      -0.156729
 3018 Fit      -0.153509
 3019 Fit      -0.150114
 3020 Fit      -0.146751
 3021 Fit      -0.143726
 3022 Fit      -0.141365
 3023 Fit      -0.139895
 3024 Fit      -0.134476
 3025 Fit      -0.135063
 3026 Fit      -0.136461
 3027 Fit      -0.138549
 3028 Fit      -0.141202
 3029 Fit      -0.144254
 3030 Fit      -0.147507
 3031 Fit      -0.150769
 3032 Fit      -0.153893
 3033 Fit      -0.156804
 3034 Fit      -0.159486
 3035 Fit      -0.161958
 3036 Fit      -0.164240
 3037 Fit      -0.166334
 3038 Fit      -0.168209
 3039 Fit      -0.169799
 3040 Fit      -0.171013
 3041 Fit      -0.171752
 3042 Fit      -0.171926
 3043 Fit      -0.171480
 3044 Fit      -0.170408
 3045 Fit      -0.168754
 3046 Fit      -0.166595
 3047 Fit      -0.164017
 3048 Fit      -0.161084
 3049 Fit      -0.157818
 3050 Fit      -0.154215
 3051 Fit      -0.150301
 3052 Fit      -0.146215
 3053 Fit      -0.142252
 3054 Fit      -0.138819
 3055 Fit      -0.136285
 3056 Fit      -0.134842
 3057 Fit      -0.128155
 3058 Fit      -0.129018
 3059 Fit      -0.130673
 3060 Fit      -0.133029
 3061 Fit      -0.136016
 3062 Fit      -0.139514
 3063 Fit      -0.143327
 3064 Fit      -0.147221
 3065 Fit      -0.150987
 3066 Fit      -0.154493
 3067 Fit      -0.157692
 3068 Fit      -0.160603
 3069 Fit      -0.163282
 3070 Fit      -0.165784
 3071 Fit      -0.168142
 3072 Fit      -0.170355
 3073 Fit      -0.172381
 3074 Fit      -0.174143
 3075 Fit      -0.175537
 3076 Fit      -0.176449
 3077 Fit      -0.176775
 3078 Fit      -0.176447
 3079 Fit      -0.175444
 3080 Fit      -0.173803
 3081 Fit      -0.171611
 3082 Fit      -0.168978
 3083 Fit      -0.166006
 3084 Fit      -0.162747
 3085 Fit      -0.159185
 3086 Fit      -0.128262
 3087 Fit      -0.129549
 3088 Fit      -0.133726
 3089 Fit      -0.138395
 3090 Fit      -0.143246
 3091 Fit      -0.147967
 3092 Fit      -0.152334
 3093 Fit      -0.156250
 3094 Fit      -0.159728
 3095 Fit      -0.162852
 3096 Fit      -0.165727
 3097 Fit      -0.168446
 3098 Fit      -0.171071
 3099 Fit      -0.173613
 3100 Fit      -0.176041
 3101 Fit      -0.178272
 3102 Fit      -0.180191
 3103 Fit      -0.181658
 3104 Fit      -0.182534
 3105 Fit      -0.182700
 3106 Fit      -0.182087
 3107 Fit      -0.180692
 3108 Fit      -0.151645
 3109 Fit      -0.156500
 3110 Fit      -0.160648
 3111 Fit      -0.164254
 3112 Fit      -0.167518
 3113 Fit      -0.170613
 3114 Fit      -0.173660
 3115 Fit      -0.176713
 3116 Fit      -0.179757
 3117 Fit      -0.182710
 3118 Fit      -0.185430
 3119 Fit      -0.187732
 3120 Fit      -0.117008
 3121 Fit      -0.128662
 3122 Fit      -0.119880
 3123 Fit      -0.111534
 3124 Fit      -0.133888
 3125 Fit      -0.125450
 3126 Fit      -0.117373
 3127 Fit      -0.109484
 3128 Fit      -0.131068
 3129 Fit      -0.123463
 3130 Fit      -0.116086
 3131 Fit      -0.108791
 3132 Fit      -0.101497
 3133 Fit      -0.138790
 3134 Fit      -0.131207
 3135 Fit      -0.124072
 3136 Fit      -0.117166
 3137 Fit      -0.110341
 3138 Fit      -0.103503
 3139 Fit      -0.096607
 3140 Fit      -0.135938
 3141 Fit      -0.128669
 3142 Fit      -0.121806
 3143 Fit      -0.115140
 3144 Fit      -0.108536
 3145 Fit      -0.101911
 3146 Fit      -0.095231
 3147 Fit      -0.141285
 3148 Fit      -0.133684
 3149 Fit      -0.126756
 3150 Fit      -0.120207
 3151 Fit      -0.113849
 3152 Fit      -0.107561
 3153 Fit      -0.101276
 3154 Fit      -0.094972
 3155 Fit      -0.088673
 3156 Fit      -0.141501
 3157 Fit      -0.133900
 3158 Fit      -0.127055
 3159 Fit      -0.120653
 3160 Fit      -0.114494
 3161 Fit      -0.108453
 3162 Fit      -0.102468
 3163 Fit      -0.096521
 3164 Fit      -0.090641
 3165 Fit      -0.144505
 3166 Fit      -0.136454
 3167 Fit      -0.129397
 3168 Fit      -0.122944
 3169 Fit      -0.116847
 3170 Fit      -0.110958
 3171 Fit      -0.105199
 3172 Fit      -0.099550
 3173 Fit      -0.094038
 3174 Fit      -0.088740
 3175 Fit      -0.147731
 3176 Fit      -0.139246
 3177 Fit      -0.131987
 3178 Fit      -0.125499
 3179 Fit      -0.119492
 3180 Fit      -0.113793
 3181 Fit      -0.108309
 3182 Fit      -0.103013
 3183 Fit      -0.097928
 3184 Fit      -0.093126
 3185 Fit      -0.088725
 3186 Fit      -0.084886
 3187 Fit      -0.086735
 3188 Fit      -0.086216
 3189 Fit      -0.087010
 3190 Fit      -0.147622
 3191 Fit      -0.138983
 3192 Fit      -0.131652
 3193 Fit      -0.125156
 3194 Fit      -0.119204
 3195 Fit      -0.113628
 3196 Fit      -0.108355
 3197 Fit      -0.103385
 3198 Fit      -0.098776
 3199 Fit      -0.094637
 3200 Fit      -0.091126
 3201 Fit      -0.088429
 3202 Fit      -0.094000
 3203 Fit      -0.094103
 3204 Fit      -0.095853
 3205 Fit      -0.141111
 3206 Fit      -0.133301
 3207 Fit      -0.126528
 3208 Fit      -0.120451
 3209 Fit      -0.114888
 3210 Fit      -0.109771
 3211 Fit      -0.105126
 3212 Fit      -0.101050
 3213 Fit      -0.097700
 3214 Fit      -0.095276
 3215 Fit      -0.101310
 3216 Fit      -0.102072
 3217 Fit      -0.143275
 3218 Fit      -0.135074
 3219 Fit      -0.128092
 3220 Fit      -0.121971
 3221 Fit      -0.116528
 3222 Fit      -0.111721
 3223 Fit      -0.107616
 3224 Fit      -0.104362
 3225 Fit      -0.102174
 3226 Fit      -0.108618
 3227 Fit      -0.110117
 3228 Fit      -0.139179
 3229 Fit      -0.131496
 3230 Fit      -0.124987
 3231 Fit      -0.119449
 3232 Fit      -0.114862
 3233 Fit      -0.111352
 3234 Fit      -0.109162
 3235 Fit      -0.115950
 3236 Fit      -0.137400
 3237 Fit      -0.129750
 3238 Fit      -0.123624
 3239 Fit      -0.119066
 3240 Fit      -0.116355
 3241 Fit      -0.123427
 3242 Fit      -0.135387
 3243 Fit      -0.128307
 3244 Fit      -0.124058
 3245 Fit      -0.129510
 3246 Fit      -0.139170
 3247 Fit      -0.115896
 3248 Fit      -0.124342
 3249 Fit      -0.132863
 3250 Fit      -0.141573
 3251 Fit      -0.115127
 3252 Fit      -0.122848
 3253 Fit      -0.130573
 3254 Fit      -0.138399
 3255 Fit      -0.146480
 3256 Fit      -0.104074
 3257 Fit      -0.111447
 3258 Fit      -0.118765
 3259 Fit      -0.126050
 3260 Fit      -0.133372
 3261 Fit      -0.140853
 3262 Fit      -0.148685
 3263 Fit      -0.102302
 3264 Fit      -0.109141
 3265 Fit      -0.115959
 3266 Fit      -0.122754
 3267 Fit      -0.129570
 3268 Fit      -0.136502
 3269 Fit      -0.143705
 3270 Fit      -0.151424
 3271 Fit      -0.096750
 3272 Fit      -0.103006
 3273 Fit      -0.109354
 3274 Fit      -0.115733
 3275 Fit      -0.122133
 3276 Fit      -0.128586
 3277 Fit      -0.135178
 3278 Fit      -0.142060
 3279 Fit      -0.149477
 3280 Fit      -0.157813
 3281 Fit      -0.094342
 3282 Fit      -0.099869
 3283 Fit      -0.105656
 3284 Fit      -0.111594
 3285 Fit      -0.117623
 3286 Fit      -0.123732
 3287 Fit      -0.129959
 3288 Fit      -0.136403
 3289 Fit      -0.143242
 3290 Fit      -0.150769
 3291 Fit      -0.159443
 3292 Fit      -0.094010
 3293 Fit      -0.098518
 3294 Fit      -0.103481
 3295 Fit      -0.108756
 3296 Fit      -0.114240
 3297 Fit      -0.119879
 3298 Fit      -0.125663
 3299 Fit      -0.131638
 3300 Fit      -0.137917
 3301 Fit      -0.144699
 3302 Fit      -0.152310
 3303 Fit      -0.161254
 3304 Fit      -0.091924
 3305 Fit      -0.091253
 3306 Fit      -0.091866
 3307 Fit      -0.093649
 3308 Fit      -0.096453
 3309 Fit      -0.100095
 3310 Fit      -0.104388
 3311 Fit      -0.109162
 3312 Fit      -0.114285
 3313 Fit      -0.119671
 3314 Fit      -0.125286
 3315 Fit      -0.131159
 3316 Fit      -0.137393
 3317 Fit      -0.144189
 3318 Fit      -0.151881
 3319 Fit      -0.160981
 3320 Fit      -0.094011
 3321 Fit      -0.099192
 3322 Fit      -0.098229
 3323 Fit      -0.098680
 3324 Fit      -0.100384
 3325 Fit      -0.103162
 3326 Fit      -0.106813
 3327 Fit      -0.111144
 3328 Fit      -0.115991
 3329 Fit      -0.121237
 3330 Fit      -0.126831
 3331 Fit      -0.132796
 3332 Fit      -0.139254
 3333 Fit      -0.146445
 3334 Fit      -0.154757
 3335 Fit      -0.101749
 3336 Fit      -0.106137
 3337 Fit      -0.104981
 3338 Fit      -0.105350
 3339 Fit      -0.107055
 3340 Fit      -0.109890
 3341 Fit      -0.113640
 3342 Fit      -0.118109
 3343 Fit      -0.123147
 3344 Fit      -0.128676
 3345 Fit      -0.134707
 3346 Fit      -0.141366
 3347 Fit      -0.148899
 3348 Fit      -0.157669
 3349 Fit      -0.109007
 3350 Fit      -0.112758
 3351 Fit      -0.111498
 3352 Fit      -0.111991
 3353 Fit      -0.114006
 3354 Fit      -0.117284
 3355 Fit      -0.121571
 3356 Fit      -0.126666
 3357 Fit      -0.132458
 3358 Fit      -0.138957
 3359 Fit      -0.146291
 3360 Fit      -0.154652
 3361 Fit      -0.115961
 3362 Fit      -0.119127
 3363 Fit      -0.117875
 3364 Fit      -0.118910
 3365 Fit      -0.121884
 3366 Fit      -0.126402
 3367 Fit      -0.132133
 3368 Fit      -0.138879
 3369 Fit      -0.146547
 3370 Fit      -0.154925
 3371 Fit      -0.122875
 3372 Fit      -0.125381
 3373 Fit      -0.124417
 3374 Fit      -0.126823
 3375 Fit      -0.131882
 3376 Fit      -0.138777
 3377 Fit      -0.146608
 3378 Fit      -0.129965
 3379 Fit      -0.131704
 3380 Fit      -0.132233
 3381 Fit      -0.138607
 3382 Fit      -0.145563
 3383 Fit      -0.138336
 3384 Fit      -0.102871
 3385 Fit      -0.111072
 3386 Fit      -0.103693
 3387 Fit      -0.090561
 3388 Fit      -0.093846
 3389 Fit      -0.112762
 3390 Fit      -0.102166
 3391 Fit      -0.094963
 3392 Fit      -0.091064
 3393 Fit      -0.081196
 3394 Fit      -0.082821
 3395 Fit      -0.087145
 3396 Fit      -0.106819
 3397 Fit      -0.097135
 3398 Fit      -0.089832
 3399 Fit      -0.084776
 3400 Fit      -0.081895
 3401 Fit      -0.074225
 3402 Fit      -0.074876
 3403 Fit      -0.077238
 3404 Fit      -0.081608
 3405 Fit      -0.105065
 3406 Fit      -0.095411
 3407 Fit      -0.087722
 3408 Fit      -0.081860
 3409 Fit      -0.077706
 3410 Fit      -0.075175
 3411 Fit      -0.069275
 3412 Fit      -0.069275
 3413 Fit      -0.070366
 3414 Fit      -0.072552
 3415 Fit      -0.095182
 3416 Fit      -0.087346
 3417 Fit      -0.081066
 3418 Fit      -0.076216
 3419 Fit      -0.072689
 3420 Fit      -0.070397
 3421 Fit      -0.066092
 3422 Fit      -0.065681
 3423 Fit      -0.066069
 3424 Fit      -0.067099
 3425 Fit      -0.068522
 3426 Fit      -0.091027
 3427 Fit      -0.083671
 3428 Fit      -0.077758
 3429 Fit      -0.073153
 3430 Fit      -0.069738
 3431 Fit      -0.067414
 3432 Fit      -0.064515
 3433 Fit      -0.063831
 3434 Fit      -0.063751
 3435 Fit      -0.064032
 3436 Fit      -0.064242
 3437 Fit      -0.088279
 3438 Fit      -0.081422
 3439 Fit      -0.075888
 3440 Fit      -0.071541
 3441 Fit      -0.068264
 3442 Fit      -0.065955
 3443 Fit      -0.064451
 3444 Fit      -0.063605
 3445 Fit      -0.063277
 3446 Fit      -0.063187
 3447 Fit      -0.062814
 3448 Fit      -0.088083
 3449 Fit      -0.081349
 3450 Fit      -0.075905
 3451 Fit      -0.071608
 3452 Fit      -0.068338
 3453 Fit      -0.065988
 3454 Fit      -0.065867
 3455 Fit      -0.064931
 3456 Fit      -0.064541
 3457 Fit      -0.064382
 3458 Fit      -0.084215
 3459 Fit      -0.078292
 3460 Fit      -0.073630
 3461 Fit      -0.070088
 3462 Fit      -0.067540
 3463 Fit      -0.068780
 3464 Fit      -0.067841
 3465 Fit      -0.067584
 3466 Fit      -0.067704
 3467 Fit      -0.082696
 3468 Fit      -0.077407
 3469 Fit      -0.073422
 3470 Fit      -0.070592
 3471 Fit      -0.073253
 3472 Fit      -0.072429
 3473 Fit      -0.072532
 3474 Fit      -0.073380
 3475 Fit      -0.082683
 3476 Fit      -0.078243
 3477 Fit      -0.075147
 3478 Fit      -0.079392
 3479 Fit      -0.078812
 3480 Fit      -0.079703
 3481 Fit      -0.081501
 3482 Fit      -0.100559
 3483 Fit      -0.103852
 3484 Fit      -0.110699
 3485 Fit      -0.121473
 3486 Fit      -0.087847
 3487 Fit      -0.088427
 3488 Fit      -0.090874
 3489 Fit      -0.095328
 3490 Fit      -0.102011
 3491 Fit      -0.111236
 3492 Fit      -0.123449
 3493 Fit      -0.078464
 3494 Fit      -0.079648
 3495 Fit      -0.081891
 3496 Fit      -0.085423
 3497 Fit      -0.090456
 3498 Fit      -0.097207
 3499 Fit      -0.105935
 3500 Fit      -0.116954
 3501 Fit      -0.078049
 3502 Fit      -0.072037
 3503 Fit      -0.073518
 3504 Fit      -0.075594
 3505 Fit      -0.078523
 3506 Fit      -0.082498
 3507 Fit      -0.087694
 3508 Fit      -0.094289
 3509 Fit      -0.102483
 3510 Fit      -0.112505
 3511 Fit      -0.070757
 3512 Fit      -0.068123
 3513 Fit      -0.069742
 3514 Fit      -0.071784
 3515 Fit      -0.074520
 3516 Fit      -0.078144
 3517 Fit      -0.082821
 3518 Fit      -0.088710
 3519 Fit      -0.095986
 3520 Fit      -0.104844
 3521 Fit      -0.066485
 3522 Fit      -0.066393
 3523 Fit      -0.067923
 3524 Fit      -0.069815
 3525 Fit      -0.072313
 3526 Fit      -0.075588
 3527 Fit      -0.079785
 3528 Fit      -0.085046
 3529 Fit      -0.091518
 3530 Fit      -0.099372
 3531 Fit      -0.064839
 3532 Fit      -0.066606
 3533 Fit      -0.067914
 3534 Fit      -0.069634
 3535 Fit      -0.071962
 3536 Fit      -0.075047
 3537 Fit      -0.079016
 3538 Fit      -0.083996
 3539 Fit      -0.090126
 3540 Fit      -0.097566
 3541 Fit      -0.063802
 3542 Fit      -0.065408
 3543 Fit      -0.068581
 3544 Fit      -0.069613
 3545 Fit      -0.071218
 3546 Fit      -0.073551
 3547 Fit      -0.076744
 3548 Fit      -0.080918
 3549 Fit      -0.086208
 3550 Fit      -0.092765
 3551 Fit      -0.067272
 3552 Fit      -0.067910
 3553 Fit      -0.072200
 3554 Fit      -0.072891
 3555 Fit      -0.074403
 3556 Fit      -0.076847
 3557 Fit      -0.080333
 3558 Fit      -0.084989
 3559 Fit      -0.090963
 3560 Fit      -0.072871
 3561 Fit      -0.072225
 3562 Fit      -0.077399
 3563 Fit      -0.077694
 3564 Fit      -0.079096
 3565 Fit      -0.081660
 3566 Fit      -0.085477
 3567 Fit      -0.090673
 3568 Fit      -0.080298
 3569 Fit      -0.078220
 3570 Fit      -0.084170
 3571 Fit      -0.084119
 3572 Fit      -0.085681
 3573 Fit      -0.088870
 3574 Fit      -0.085953
 -----------------------------------------------------------------
 Leave Link  602 at Fri Sep 30 06:21:35 2016, MaxMem=    33554432 cpu:         0.3

 Test job not archived.
 1\1\GINC-NID00107\SP\RHF\6-31G(d)\H2O4P1(1-)\NMIH\30-Sep-2016\0\\#HF/6
 -31G* Test Pop=MK iop(6/33=2) iop(6/42=6)\\H2PO4_representative.pdb\\-
 1,1\P,0,11.37,39.444,13.137\O,0,10.283,39.973,14.028\O,0,10.973,38.112
 ,12.545\O,0,11.757,40.433,12.097\O,0,12.603,39.2,14.021\H,0,12.444,40.
 098,11.533\H,0,13.29,38.865,13.457\\Version=ES64L-G09RevD.01\State=1-A
 \HF=-641.419548\RMSD=6.141e-09\Dipole=2.7189017,0.5502815,-1.2417576\Q
 uadrupole=2.7951012,-3.4311082,0.636007,-0.7034657,-1.2180178,-3.02894
 5\PG=C01 [X(H2O4P1)]\\@


 AN OPTIMIST IS A GUY
 THAT HAS NEVER HAD
 MUCH EXPERIENCE
   (CERTAIN MAXIMS OF ARCHY  -- DON MARQUIS)
 Job cpu time:       0 days  0 hours  0 minutes  1.8 seconds.
 File lengths (MBytes):  RWF=      5 Int=      0 D2E=      0 Chk=      1 Scr=      1
 Normal termination of Gaussian 09 at Fri Sep 30 06:21:35 2016.
