 Entering Gaussian System, Link 0=g09
 Input=EFZ.gau
 Output=EFZ.log
 Initial command:
 /usr/common/usg/g09/c1/g09/l1.exe /scratch/scratchdirs/ebrunk/Gau-23003.inp -scrdir=/scratch/scratchdirs/ebrunk/
 Entering Link 1 = /usr/common/usg/g09/c1/g09/l1.exe PID=     23004.
  
 Copyright (c) 1988,1990,1992,1993,1995,1998,2003,2009,2011,
            Gaussian, Inc.  All Rights Reserved.
  
 This is part of the Gaussian(R) 09 program.  It is based on
 the Gaussian(R) 03 system (copyright 2003, Gaussian, Inc.),
 the Gaussian(R) 98 system (copyright 1998, Gaussian, Inc.),
 the Gaussian(R) 94 system (copyright 1995, Gaussian, Inc.),
 the Gaussian 92(TM) system (copyright 1992, Gaussian, Inc.),
 the Gaussian 90(TM) system (copyright 1990, Gaussian, Inc.),
 the Gaussian 88(TM) system (copyright 1988, Gaussian, Inc.),
 the Gaussian 86(TM) system (copyright 1986, Carnegie Mellon
 University), and the Gaussian 82(TM) system (copyright 1983,
 Carnegie Mellon University). Gaussian is a federally registered
 trademark of Gaussian, Inc.
  
 This software contains proprietary and confidential information,
 including trade secrets, belonging to Gaussian, Inc.
  
 This software is provided under written license and may be
 used, copied, transmitted, or stored only in accord with that
 written license.
  
 The following legend is applicable only to US Government
 contracts under FAR:
  
                    RESTRICTED RIGHTS LEGEND
  
 Use, reproduction and disclosure by the US Government is
 subject to restrictions as set forth in subparagraphs (a)
 and (c) of the Commercial Computer Software - Restricted
 Rights clause in FAR 52.227-19.
  
 Gaussian, Inc.
 340 Quinnipiac St., Bldg. 40, Wallingford CT 06492
  
  
 ---------------------------------------------------------------
 Warning -- This program may not be used in any manner that
 competes with the business of Gaussian, Inc. or will provide
 assistance to any competitor of Gaussian, Inc.  The licensee
 of this program is prohibited from giving any competitor of
 Gaussian, Inc. access to this program.  By using this program,
 the user acknowledges that Gaussian, Inc. is engaged in the
 business of creating and licensing software in the field of
 computational chemistry and represents and warrants to the
 licensee that it is not a competitor of Gaussian, Inc. and that
 it will not use this program in any manner prohibited above.
 ---------------------------------------------------------------
  

 Cite this work as:
 Gaussian 09, Revision C.01,
 M. J. Frisch, G. W. Trucks, H. B. Schlegel, G. E. Scuseria, 
 M. A. Robb, J. R. Cheeseman, G. Scalmani, V. Barone, B. Mennucci, 
 G. A. Petersson, H. Nakatsuji, M. Caricato, X. Li, H. P. Hratchian, 
 A. F. Izmaylov, J. Bloino, G. Zheng, J. L. Sonnenberg, M. Hada, 
 M. Ehara, K. Toyota, R. Fukuda, J. Hasegawa, M. Ishida, T. Nakajima, 
 Y. Honda, O. Kitao, H. Nakai, T. Vreven, J. A. Montgomery, Jr., 
 J. E. Peralta, F. Ogliaro, M. Bearpark, J. J. Heyd, E. Brothers, 
 K. N. Kudin, V. N. Staroverov, T. Keith, R. Kobayashi, J. Normand, 
 K. Raghavachari, A. Rendell, J. C. Burant, S. S. Iyengar, J. Tomasi, 
 M. Cossi, N. Rega, J. M. Millam, M. Klene, J. E. Knox, J. B. Cross, 
 V. Bakken, C. Adamo, J. Jaramillo, R. Gomperts, R. E. Stratmann, 
 O. Yazyev, A. J. Austin, R. Cammi, C. Pomelli, J. W. Ochterski, 
 R. L. Martin, K. Morokuma, V. G. Zakrzewski, G. A. Voth, 
 P. Salvador, J. J. Dannenberg, S. Dapprich, A. D. Daniels, 
 O. Farkas, J. B. Foresman, J. V. Ortiz, J. Cioslowski, 
 and D. J. Fox, Gaussian, Inc., Wallingford CT, 2010.
 
 ******************************************
 Gaussian 09:  AM64L-G09RevC.01 23-Sep-2011
                 9-Jul-2014 
 ******************************************
 %chk=molecule
 ------------------------------------------------------------
 #HF/6-31G* SCF=tight Test Pop=MK iop(6/33=2) iop(6/42=6) opt
 ------------------------------------------------------------
 1/18=20,19=15,38=1/1,3;
 2/9=110,12=2,17=6,18=5,40=1/2;
 3/5=1,6=6,7=1,11=9,16=1,25=1,30=1,71=1/1,2,3;
 4//1;
 5/5=2,32=2,38=5/2;
 6/7=2,8=2,9=2,10=2,15=8,20=1,28=1,33=2,42=6/1,2;
 7//1,2,3,16;
 1/18=20,19=15/3(2);
 2/9=110/2;
 99//99;
 2/9=110/2;
 3/5=1,6=6,7=1,11=9,16=1,25=1,30=1,71=1/1,2,3;
 4/5=5,16=3/1;
 5/5=2,32=2,38=5/2;
 7//1,2,3,16;
 1/18=20,19=15/3(-5);
 2/9=110/2;
 6/7=2,8=2,9=2,10=2,15=8,19=2,20=1,28=1,33=2,42=6/1,2;
 99/9=1/99;
 ---------------------
 remark line goes here
 ---------------------
 Charge = -2 Multiplicity = 1
 Symbolic Z-Matrix:
 H                     169.377   22.603   -283.781 
 C                     168.40394   22.83054  -283.3457 
 C                     167.28694   22.18854  -284.2047 
 C                     166.84494   23.00654  -285.4367 
 O                     167.91594   23.54454  -286.1277 
 P                     167.69494   23.94154  -287.8207 
 O                     169.06694   24.45354  -288.1717 
 C                     168.42894   22.33254  -281.8817 
 C                     167.33862   22.5521  -280.95139 
 O                     168.26194   24.23854  -283.3237 
 O                     167.30894   22.61554  -288.4327 
 O                     166.59194   24.97154  -287.7927 
 O                     168.60324   20.94458  -281.93809 
 H                     169.32194   22.74354  -281.4187 
 H                     168.22794   24.50554  -284.2397 
 O                     167.74379   20.93477  -284.62819 
 H                     166.42294   22.02154  -283.5747 
 H                     166.25894   22.35754  -286.0817 
 H                     166.17494   23.80054  -285.0997 
 H                     168.62477   20.59316  -281.05897 
 H                     167.07794   20.51842  -285.15744 
 H                     167.58918   22.11088  -279.98782 
 C                     167.1213   23.97648  -280.78891 
 O                     166.17358   21.95602  -281.44878 
 H                     165.46149   22.09942  -280.84119 
 C                     166.03097   24.19603  -279.8586 
 O                     167.91913   24.89048  -281.48752 
 O                     165.82114   25.5713  -279.70172 
 H                     165.12474   23.73238  -280.2455 
 H                     166.28154   23.75482  -278.89503 
 H                     165.10905   25.71469  -279.09413 
 

 GradGradGradGradGradGradGradGradGradGradGradGradGradGradGradGradGradGrad
 Berny optimization.
 Initialization pass.
                           ----------------------------
                           !    Initial Parameters    !
                           ! (Angstroms and Degrees)  !
 --------------------------                            --------------------------
 ! Name  Definition              Value          Derivative Info.                !
 --------------------------------------------------------------------------------
 ! R1    R(1,2)                  1.09           estimate D2E/DX2                !
 ! R2    R(2,3)                  1.5485         estimate D2E/DX2                !
 ! R3    R(2,8)                  1.5466         estimate D2E/DX2                !
 ! R4    R(2,10)                 1.4153         estimate D2E/DX2                !
 ! R5    R(3,4)                  1.5435         estimate D2E/DX2                !
 ! R6    R(3,16)                 1.4            estimate D2E/DX2                !
 ! R7    R(3,17)                 1.0823         estimate D2E/DX2                !
 ! R8    R(4,5)                  1.3835         estimate D2E/DX2                !
 ! R9    R(4,18)                 1.0866         estimate D2E/DX2                !
 ! R10   R(4,19)                 1.0922         estimate D2E/DX2                !
 ! R11   R(5,6)                  1.7529         estimate D2E/DX2                !
 ! R12   R(6,7)                  1.5059         estimate D2E/DX2                !
 ! R13   R(6,11)                 1.5106         estimate D2E/DX2                !
 ! R14   R(6,12)                 1.5094         estimate D2E/DX2                !
 ! R15   R(8,9)                  1.45           estimate D2E/DX2                !
 ! R16   R(8,13)                 1.4            estimate D2E/DX2                !
 ! R17   R(8,14)                 1.0866         estimate D2E/DX2                !
 ! R18   R(9,22)                 1.089          estimate D2E/DX2                !
 ! R19   R(9,23)                 1.45           estimate D2E/DX2                !
 ! R20   R(9,24)                 1.4            estimate D2E/DX2                !
 ! R21   R(10,15)                0.9547         estimate D2E/DX2                !
 ! R22   R(13,20)                0.947          estimate D2E/DX2                !
 ! R23   R(16,21)                0.947          estimate D2E/DX2                !
 ! R24   R(23,26)                1.45           estimate D2E/DX2                !
 ! R25   R(23,27)                1.4            estimate D2E/DX2                !
 ! R26   R(24,25)                0.947          estimate D2E/DX2                !
 ! R27   R(26,28)                1.4            estimate D2E/DX2                !
 ! R28   R(26,29)                1.089          estimate D2E/DX2                !
 ! R29   R(26,30)                1.089          estimate D2E/DX2                !
 ! R30   R(28,31)                0.947          estimate D2E/DX2                !
 ! A1    A(1,2,3)              109.626          estimate D2E/DX2                !
 ! A2    A(1,2,8)              107.2404         estimate D2E/DX2                !
 ! A3    A(1,2,10)             107.6649         estimate D2E/DX2                !
 ! A4    A(3,2,8)              113.7834         estimate D2E/DX2                !
 ! A5    A(3,2,10)             110.4085         estimate D2E/DX2                !
 ! A6    A(8,2,10)             107.8932         estimate D2E/DX2                !
 ! A7    A(2,3,4)              115.4447         estimate D2E/DX2                !
 ! A8    A(2,3,16)             107.6805         estimate D2E/DX2                !
 ! A9    A(2,3,17)             108.4777         estimate D2E/DX2                !
 ! A10   A(4,3,16)             109.0637         estimate D2E/DX2                !
 ! A11   A(4,3,17)             108.5304         estimate D2E/DX2                !
 ! A12   A(16,3,17)            107.362          estimate D2E/DX2                !
 ! A13   A(3,4,5)              112.5249         estimate D2E/DX2                !
 ! A14   A(3,4,18)             108.1625         estimate D2E/DX2                !
 ! A15   A(3,4,19)             108.3403         estimate D2E/DX2                !
 ! A16   A(5,4,18)             110.6887         estimate D2E/DX2                !
 ! A17   A(5,4,19)             110.2611         estimate D2E/DX2                !
 ! A18   A(18,4,19)            106.6509         estimate D2E/DX2                !
 ! A19   A(4,5,6)              118.221          estimate D2E/DX2                !
 ! A20   A(5,6,7)              100.7926         estimate D2E/DX2                !
 ! A21   A(5,6,11)             102.9856         estimate D2E/DX2                !
 ! A22   A(5,6,12)             103.2242         estimate D2E/DX2                !
 ! A23   A(7,6,11)             115.902          estimate D2E/DX2                !
 ! A24   A(7,6,12)             115.9822         estimate D2E/DX2                !
 ! A25   A(11,6,12)            114.8217         estimate D2E/DX2                !
 ! A26   A(2,8,9)              123.122          estimate D2E/DX2                !
 ! A27   A(2,8,13)             106.4462         estimate D2E/DX2                !
 ! A28   A(2,8,14)             107.1475         estimate D2E/DX2                !
 ! A29   A(9,8,13)             105.6389         estimate D2E/DX2                !
 ! A30   A(9,8,14)             106.6972         estimate D2E/DX2                !
 ! A31   A(13,8,14)            106.8481         estimate D2E/DX2                !
 ! A32   A(8,9,22)             109.4712         estimate D2E/DX2                !
 ! A33   A(8,9,23)             109.4712         estimate D2E/DX2                !
 ! A34   A(8,9,24)             109.4712         estimate D2E/DX2                !
 ! A35   A(22,9,23)            109.4712         estimate D2E/DX2                !
 ! A36   A(22,9,24)            109.4712         estimate D2E/DX2                !
 ! A37   A(23,9,24)            109.4712         estimate D2E/DX2                !
 ! A38   A(2,10,15)            105.4784         estimate D2E/DX2                !
 ! A39   A(8,13,20)            109.4711         estimate D2E/DX2                !
 ! A40   A(3,16,21)            109.4712         estimate D2E/DX2                !
 ! A41   A(9,23,26)            109.4712         estimate D2E/DX2                !
 ! A42   A(9,23,27)            120.0            estimate D2E/DX2                !
 ! A43   A(26,23,27)           130.5288         estimate D2E/DX2                !
 ! A44   A(9,24,25)            109.4712         estimate D2E/DX2                !
 ! A45   A(23,26,28)           109.4712         estimate D2E/DX2                !
 ! A46   A(23,26,29)           109.4713         estimate D2E/DX2                !
 ! A47   A(23,26,30)           109.4712         estimate D2E/DX2                !
 ! A48   A(28,26,29)           109.4712         estimate D2E/DX2                !
 ! A49   A(28,26,30)           109.4712         estimate D2E/DX2                !
 ! A50   A(29,26,30)           109.4712         estimate D2E/DX2                !
 ! A51   A(26,28,31)           109.4712         estimate D2E/DX2                !
 ! D1    D(1,2,3,4)            -83.4654         estimate D2E/DX2                !
 ! D2    D(1,2,3,16)            38.6282         estimate D2E/DX2                !
 ! D3    D(1,2,3,17)           154.5246         estimate D2E/DX2                !
 ! D4    D(8,2,3,4)            156.4673         estimate D2E/DX2                !
 ! D5    D(8,2,3,16)           -81.4391         estimate D2E/DX2                !
 ! D6    D(8,2,3,17)            34.4573         estimate D2E/DX2                !
 ! D7    D(10,2,3,4)            34.9864         estimate D2E/DX2                !
 ! D8    D(10,2,3,16)          157.0799         estimate D2E/DX2                !
 ! D9    D(10,2,3,17)          -87.0237         estimate D2E/DX2                !
 ! D10   D(1,2,8,9)            175.2735         estimate D2E/DX2                !
 ! D11   D(1,2,8,13)           -62.8425         estimate D2E/DX2                !
 ! D12   D(1,2,8,14)            51.1952         estimate D2E/DX2                !
 ! D13   D(3,2,8,9)            -63.3219         estimate D2E/DX2                !
 ! D14   D(3,2,8,13)            58.5622         estimate D2E/DX2                !
 ! D15   D(3,2,8,14)           172.5999         estimate D2E/DX2                !
 ! D16   D(10,2,8,9)            59.5476         estimate D2E/DX2                !
 ! D17   D(10,2,8,13)         -178.5683         estimate D2E/DX2                !
 ! D18   D(10,2,8,14)          -64.5306         estimate D2E/DX2                !
 ! D19   D(1,2,10,15)           65.9682         estimate D2E/DX2                !
 ! D20   D(3,2,10,15)          -53.6751         estimate D2E/DX2                !
 ! D21   D(8,2,10,15)         -178.5847         estimate D2E/DX2                !
 ! D22   D(2,3,4,5)             43.2866         estimate D2E/DX2                !
 ! D23   D(2,3,4,18)           165.8733         estimate D2E/DX2                !
 ! D24   D(2,3,4,19)           -78.884          estimate D2E/DX2                !
 ! D25   D(16,3,4,5)           -78.0638         estimate D2E/DX2                !
 ! D26   D(16,3,4,18)           44.5229         estimate D2E/DX2                !
 ! D27   D(16,3,4,19)          159.7657         estimate D2E/DX2                !
 ! D28   D(17,3,4,5)           165.2684         estimate D2E/DX2                !
 ! D29   D(17,3,4,18)          -72.1449         estimate D2E/DX2                !
 ! D30   D(17,3,4,19)           43.0979         estimate D2E/DX2                !
 ! D31   D(2,3,16,21)          180.0            estimate D2E/DX2                !
 ! D32   D(4,3,16,21)          -54.0369         estimate D2E/DX2                !
 ! D33   D(17,3,16,21)          63.3724         estimate D2E/DX2                !
 ! D34   D(3,4,5,6)            156.4108         estimate D2E/DX2                !
 ! D35   D(18,4,5,6)            35.2572         estimate D2E/DX2                !
 ! D36   D(19,4,5,6)           -82.5111         estimate D2E/DX2                !
 ! D37   D(4,5,6,7)           -178.9538         estimate D2E/DX2                !
 ! D38   D(4,5,6,11)           -58.932          estimate D2E/DX2                !
 ! D39   D(4,5,6,12)            60.8525         estimate D2E/DX2                !
 ! D40   D(2,8,9,22)           180.0            estimate D2E/DX2                !
 ! D41   D(2,8,9,23)           -60.0            estimate D2E/DX2                !
 ! D42   D(2,8,9,24)            60.0            estimate D2E/DX2                !
 ! D43   D(13,8,9,22)           57.7454         estimate D2E/DX2                !
 ! D44   D(13,8,9,23)          177.7454         estimate D2E/DX2                !
 ! D45   D(13,8,9,24)          -62.2546         estimate D2E/DX2                !
 ! D46   D(14,8,9,22)          -55.72           estimate D2E/DX2                !
 ! D47   D(14,8,9,23)           64.28           estimate D2E/DX2                !
 ! D48   D(14,8,9,24)         -175.72           estimate D2E/DX2                !
 ! D49   D(2,8,13,20)          179.9999         estimate D2E/DX2                !
 ! D50   D(9,8,13,20)          -47.6024         estimate D2E/DX2                !
 ! D51   D(14,8,13,20)          65.758          estimate D2E/DX2                !
 ! D52   D(8,9,23,26)          180.0            estimate D2E/DX2                !
 ! D53   D(8,9,23,27)            0.0            estimate D2E/DX2                !
 ! D54   D(22,9,23,26)         -60.0            estimate D2E/DX2                !
 ! D55   D(22,9,23,27)         120.0            estimate D2E/DX2                !
 ! D56   D(24,9,23,26)          60.0            estimate D2E/DX2                !
 ! D57   D(24,9,23,27)        -120.0            estimate D2E/DX2                !
 ! D58   D(8,9,24,25)          180.0            estimate D2E/DX2                !
 ! D59   D(22,9,24,25)          60.0            estimate D2E/DX2                !
 ! D60   D(23,9,24,25)         -60.0            estimate D2E/DX2                !
 ! D61   D(9,23,26,28)         180.0            estimate D2E/DX2                !
 ! D62   D(9,23,26,29)         -60.0            estimate D2E/DX2                !
 ! D63   D(9,23,26,30)          60.0            estimate D2E/DX2                !
 ! D64   D(27,23,26,28)          0.0            estimate D2E/DX2                !
 ! D65   D(27,23,26,29)        120.0            estimate D2E/DX2                !
 ! D66   D(27,23,26,30)       -120.0            estimate D2E/DX2                !
 ! D67   D(23,26,28,31)       -180.0            estimate D2E/DX2                !
 ! D68   D(29,26,28,31)         60.0            estimate D2E/DX2                !
 ! D69   D(30,26,28,31)        -59.9999         estimate D2E/DX2                !
 --------------------------------------------------------------------------------
 Trust Radius=3.00D-01 FncErr=1.00D-07 GrdErr=1.00D-07
 Number of steps in this run=    160 maximum allowed number of steps=    186.
 GradGradGradGradGradGradGradGradGradGradGradGradGradGradGradGradGradGrad

                          Input orientation:                          
 ---------------------------------------------------------------------
 Center     Atomic      Atomic             Coordinates (Angstroms)
 Number     Number       Type             X           Y           Z
 ---------------------------------------------------------------------
      1          1           0      169.377000   22.603000 -283.781000
      2          6           0      168.403942   22.830541 -283.345703
      3          6           0      167.286942   22.188541 -284.204703
      4          6           0      166.844942   23.006542 -285.436703
      5          8           0      167.915942   23.544542 -286.127703
      6         15           0      167.694943   23.941542 -287.820703
      7          8           0      169.066943   24.453542 -288.171703
      8          6           0      168.428942   22.332541 -281.881703
      9          6           0      167.338615   22.552095 -280.951390
     10          8           0      168.261942   24.238542 -283.323703
     11          8           0      167.308943   22.615542 -288.432703
     12          8           0      166.591943   24.971542 -287.792703
     13          8           0      168.603238   20.944578 -281.938094
     14          1           0      169.321942   22.743541 -281.418703
     15          1           0      168.227942   24.505542 -284.239703
     16          8           0      167.743793   20.934768 -284.628189
     17          1           0      166.422942   22.021541 -283.574703
     18          1           0      166.258942   22.357542 -286.081703
     19          1           0      166.174942   23.800542 -285.099703
     20          1           0      168.624774   20.593162 -281.058974
     21          1           0      167.077938   20.518424 -285.157437
     22          1           0      167.589184   22.110883 -279.987820
     23          6           0      167.121296   23.976480 -280.788912
     24          8           0      166.173583   21.956024 -281.448782
     25          1           0      165.461486   22.099415 -280.841191
     26          6           0      166.030969   24.196034 -279.858599
     27          8           0      167.919132   24.890484 -281.487521
     28          8           0      165.821144   25.571303 -279.701723
     29          1           0      165.124740   23.732376 -280.245498
     30          1           0      166.281538   23.754822 -278.895028
     31          1           0      165.109048   25.714694 -279.094132
 ---------------------------------------------------------------------
                    Distance matrix (angstroms):
                    1          2          3          4          5
     1  H    0.000000
     2  C    1.090000   0.000000
     3  C    2.172474   1.548462   0.000000
     4  C    3.052133   2.614142   1.543475   0.000000
     5  O    2.920309   2.913325   2.435633   1.383462   0.000000
     6  P    4.576048   4.665043   4.039175   2.698181   1.752911
     7  O    4.774821   5.134587   4.902624   3.809373   2.515754
     8  C    2.139928   1.546585   2.592533   3.949855   4.445293
     9  C    3.487735   2.635373   3.273971   4.535225   5.302120
    10  O    2.031618   1.415314   2.435013   2.826744   2.909256
    11  O    5.090713   5.207957   4.249564   3.056827   2.558225
    12  O    5.427734   5.257664   4.593676   3.078306   2.561548
    13  O    2.597186   2.361766   2.901309   4.425332   4.978455
    14  H    2.367114   2.136264   3.494431   4.727475   4.979269
    15  H    2.269451   1.906788   2.501040   2.364847   2.141357
    16  O    2.483564   2.382126   1.400000   2.398724   3.014813
    17  H    3.017799   2.152042   1.082259   2.148338   3.326618
    18  H    3.882753   3.508625   2.146736   1.086564   2.038807
    19  H    3.664186   2.997642   2.153164   1.092202   2.037989
    20  H    3.466225   3.206830   3.772352   5.306290   5.908054
    21  H    3.394955   3.222817   1.934083   2.514559   3.286496
    22  H    4.222165   3.529464   4.228414   5.571932   6.313502
    23  C    3.990894   3.081483   3.858989   4.755955   5.414861
    24  O    4.014935   3.055747   2.981398   4.178256   5.239418
    25  H    4.922126   3.932578   3.827982   4.884215   6.004994
    26  C    5.396194   4.433449   4.949355   5.761310   6.578695
    27  O    3.552184   2.816247   3.883714   4.505459   4.831445
    28  O    6.172150   5.240345   5.819662   6.365230   7.056143
    29  H    5.644199   4.601928   4.768003   5.516751   6.513557
    30  H    5.897567   5.016712   5.626431   6.608393   7.418024
    31  H    7.061500   6.103320   6.579887   7.111654   7.877775
                    6          7          8          9         10
     6  P    0.000000
     7  O    1.505898   0.000000
     8  C    6.196722   6.668567   0.000000
     9  C    7.017478   7.663911   1.450000   0.000000
    10  O    4.542324   4.919081   2.395849   3.053605   0.000000
    11  O    1.510568   2.556742   6.652074   7.481641   5.444650
    12  O    1.509402   2.556871   6.728953   7.294848   4.826815
    13  O    6.664224   7.168384   1.400000   2.270896   3.589790
    14  H    6.713266   6.970806   1.086618   2.046612   2.643417
    15  H    3.664116   4.020852   3.212865   3.926813   0.954726
    16  O    4.385798   5.166139   3.156958   4.037173   3.589580
    17  H    4.830415   5.834191   2.643295   2.828730   2.891369
    18  H    2.755953   4.079974   4.727528   5.246299   3.893165
    19  H    3.119956   4.269340   4.194171   4.485672   2.775174
    20  H    7.602448   8.104873   1.934082   2.345890   4.306906
    21  H    4.380801   5.341076   3.980787   4.679167   4.313203
    22  H    8.044660   8.639894   2.083535   1.089000   4.013434
    23  C    7.055238   7.649754   2.367840   1.450000   2.791938
    24  O    6.845305   7.733485   2.327194   1.400000   3.617521
    25  H    7.556146   8.501626   3.153222   1.934083   4.310601
    26  C    8.138100   8.853877   3.649086   2.367840   4.121407
    27  O    6.407804   6.796078   2.637870   2.468299   1.978411
    28  O    8.490293   9.139210   4.694944   3.602777   4.566452
    29  H    8.002089   8.881766   3.943914   2.606260   4.424205
    30  H    9.038819   9.710993   3.943914   2.606260   4.875361
    31  H    9.272754   9.982872   5.498291   4.292133   5.478050
                   11         12         13         14         15
    11  O    0.000000
    12  O    2.544489   0.000000
    13  O    6.829880   7.384998   0.000000
    14  H    7.298270   7.283183   2.005635   0.000000
    15  H    4.690193   3.939220   4.256608   3.501360   0.000000
    16  O    4.181916   5.257038   2.824067   4.007869   3.624327
    17  H    4.973731   5.150009   2.931216   3.684267   3.141737
    18  H    2.587715   3.141879   4.966053   5.592364   3.447293
    19  H    3.714710   2.966038   4.903970   4.956876   2.334831
    20  H    7.758435   8.285271   0.947000   2.289012   5.057789
    21  H    3.895977   5.197218   3.587801   4.895389   4.249924
    22  H    8.464589   8.372219   2.488401   2.334552   4.921475
    23  C    7.766267   7.093902   3.564997   2.599927   3.662312
    24  O    7.106276   7.036598   2.676877   3.245497   4.302287
    25  H    7.830105   7.605956   3.522421   3.956203   4.999261
    26  C    8.811721   7.991628   4.638193   3.920990   4.910861
    27  O    7.333706   6.443859   4.030036   2.565536   2.796078
    28  O    9.337027   8.149712   5.843628   4.816622   5.246121
    29  H    8.546835   7.787716   4.768296   4.468860   5.116769
    30  H    9.660267   8.985843   4.748475   4.078686   5.737388
    31  H   10.082321   8.855303   6.561363   5.655074   6.137300
                   16         17         18         19         20
    16  O    0.000000
    17  H    2.008869   0.000000
    18  H    2.518287   2.534727   0.000000
    19  H    3.300951   2.356263   1.747464   0.000000
    20  H    3.692170   3.635550   5.825633   5.711082   0.000000
    21  H    0.947000   2.278909   2.215260   3.404561   4.381288
    22  H    4.789590   3.772775   6.242259   5.566541   2.126804
    23  C    4.937566   3.474207   5.601629   4.416951   3.712172
    24  O    3.690143   2.141498   4.651071   4.090412   2.831551
    25  H    4.572383   2.898715   5.307121   4.640881   3.510359
    26  C    6.026492   4.323366   6.493000   5.257976   4.598849
    27  O    5.053932   3.850422   5.502593   4.156685   4.375907
    28  O    7.033072   5.288000   7.157099   5.692008   5.872338
    29  H    5.821858   3.961804   6.102284   4.966979   4.771441
    30  H    6.554390   4.992356   7.321284   6.205759   4.491048
    31  H    7.772732   5.953252   7.837019   6.392730   6.515445
                   21         22         23         24         25
    21  H    0.000000
    22  H    5.433437   0.000000
    23  C    5.571718   2.083535   0.000000
    24  O    4.079053   2.040176   2.327194   0.000000
    25  H    4.872620   2.292482   2.506207   0.947000   0.000000
    26  C    6.534420   2.606259   1.450000   2.750757   2.384452
    27  O    5.769818   3.175555   1.400000   3.414601   3.774630
    28  O    7.541613   3.896450   2.327195   4.030716   3.671750
    29  H    6.186406   2.961270   2.083536   2.388177   1.770539
    30  H    7.094103   2.367840   2.083536   3.125538   2.683358
    31  H    8.224440   4.465110   3.153222   4.561273   4.030716
                   26         27         28         29         30
    26  C    0.000000
    27  O    2.588592   0.000000
    28  O    1.400001   2.837982   0.000000
    29  H    1.089000   3.269933   2.040177   0.000000
    30  H    1.089000   3.269933   2.040177   1.778329   0.000000
    31  H    1.934083   3.782090   0.947000   2.292482   2.292482
                   31
    31  H    0.000000
 Stoichiometry    C7H13O10P(2-)
 Framework group  C1[X(C7H13O10P)]
 Deg. of freedom    87
 Full point group                 C1      NOp   1
 Largest Abelian subgroup         C1      NOp   1
 Largest concise Abelian subgroup C1      NOp   1
                         Standard orientation:                         
 ---------------------------------------------------------------------
 Center     Atomic      Atomic             Coordinates (Angstroms)
 Number     Number       Type             X           Y           Z
 ---------------------------------------------------------------------
      1          1           0       -0.045479    1.222295    1.644054
      2          6           0        0.489885    0.727942    0.833436
      3          6           0       -0.222675    1.014337   -0.511171
      4          6           0       -1.417750    0.093717   -0.837618
      5          8           0       -2.237267   -0.118972    0.256512
      6         15           0       -3.904430   -0.576583   -0.033068
      7          8           0       -4.419132   -0.674984    1.378714
      8          6           0        1.953966    1.224010    0.881488
      9          6           0        2.994387    0.707604    0.013531
     10          8           0        0.492289   -0.661140    1.104655
     11          8           0       -4.436070    0.577220   -0.850328
     12          8           0       -3.779303   -1.880144   -0.783646
     13          8           0        1.913289    2.602915    0.642810
     14          1           0        2.303927    1.091148    1.901593
     15          1           0       -0.420594   -0.934101    1.044341
     16          8           0       -0.662945    2.343040   -0.484503
     17          1           0        0.503831    0.930796   -1.308978
     18          1           0       -1.976820    0.541357   -1.654735
     19          1           0       -1.028074   -0.856715   -1.208749
     20          1           0        2.793043    2.952831    0.662851
     21          1           0       -1.103942    2.545840   -1.297647
     22          1           0        3.934719    1.210109    0.235310
     23          6           0        3.144344   -0.717695    0.233839
     24          8           0        2.645271    0.939145   -1.322323
     25          1           0        3.324774    0.601879   -1.889189
     26          6           0        4.184765   -1.234100   -0.634118
     27          8           0        2.338336   -1.369137    1.175101
     28          8           0        4.329552   -2.610252   -0.421407
     29          1           0        3.913204   -1.053995   -1.673222
     30          1           0        5.125098   -0.731596   -0.412339
     31          1           0        5.009055   -2.947518   -0.988272
 ---------------------------------------------------------------------
 Rotational constants (GHZ):      0.6927253      0.1810614      0.1612565
 Standard basis: 6-31G(d) (6D, 7F)
 There are   300 symmetry adapted basis functions of A   symmetry.
 Integral buffers will be    131072 words long.
 Raffenetti 1 integral format.
 Two-electron integral symmetry is turned on.
   300 basis functions,   580 primitive gaussians,   300 cartesian basis functions
    76 alpha electrons       76 beta electrons
       nuclear repulsion energy      1657.5558137502 Hartrees.
 NAtoms=   31 NActive=   31 NUniq=   31 SFac= 1.00D+00 NAtFMM=   60 NAOKFM=F Big=F
 One-electron integrals computed using PRISM.
 NBasis=   300 RedAO= T  NBF=   300
 NBsUse=   300 1.00D-06 NBFU=   300
 Harris functional with IExCor=  205 diagonalized for initial guess.
 ExpMin= 9.98D-02 ExpMax= 1.94D+04 ExpMxC= 2.91D+03 IAcc=2 IRadAn=         4 AccDes= 0.00D+00
 HarFok:  IExCor=  205 AccDes= 0.00D+00 IRadAn=         4 IDoV= 1
 ScaDFX=  1.000000  1.000000  1.000000  1.000000
 FoFCou: FMM=F IPFlag=           0 FMFlag=      100000 FMFlg1=           0
         NFxFlg=           0 DoJE=T BraDBF=F KetDBF=T FulRan=T
         Omega=  0.000000  0.000000  1.000000  0.000000  0.000000 ICntrl=     500 IOpCl=  0
         NMat0=    1 NMatS0=    1 NMatT0=    0 NMatD0=    1 NMtDS0=    0 NMtDT0=    0
         I1Cent=           4 NGrid=           0.
 Petite list used in FoFCou.
 Initial guess orbital symmetries:
       Occupied  (A) (A) (A) (A) (A) (A) (A) (A) (A) (A) (A) (A)
                 (A) (A) (A) (A) (A) (A) (A) (A) (A) (A) (A) (A)
                 (A) (A) (A) (A) (A) (A) (A) (A) (A) (A) (A) (A)
                 (A) (A) (A) (A) (A) (A) (A) (A) (A) (A) (A) (A)
                 (A) (A) (A) (A) (A) (A) (A) (A) (A) (A) (A) (A)
                 (A) (A) (A) (A) (A) (A) (A) (A) (A) (A) (A) (A)
                 (A) (A) (A) (A)
       Virtual   (A) (A) (A) (A) (A) (A) (A) (A) (A) (A) (A) (A)
                 (A) (A) (A) (A) (A) (A) (A) (A) (A) (A) (A) (A)
                 (A) (A) (A) (A) (A) (A) (A) (A) (A) (A) (A) (A)
                 (A) (A) (A) (A) (A) (A) (A) (A) (A) (A) (A) (A)
                 (A) (A) (A) (A) (A) (A) (A) (A) (A) (A) (A) (A)
                 (A) (A) (A) (A) (A) (A) (A) (A) (A) (A) (A) (A)
                 (A) (A) (A) (A) (A) (A) (A) (A) (A) (A) (A) (A)
                 (A) (A) (A) (A) (A) (A) (A) (A) (A) (A) (A) (A)
                 (A) (A) (A) (A) (A) (A) (A) (A) (A) (A) (A) (A)
                 (A) (A) (A) (A) (A) (A) (A) (A) (A) (A) (A) (A)
                 (A) (A) (A) (A) (A) (A) (A) (A) (A) (A) (A) (A)
                 (A) (A) (A) (A) (A) (A) (A) (A) (A) (A) (A) (A)
                 (A) (A) (A) (A) (A) (A) (A) (A) (A) (A) (A) (A)
                 (A) (A) (A) (A) (A) (A) (A) (A) (A) (A) (A) (A)
                 (A) (A) (A) (A) (A) (A) (A) (A) (A) (A) (A) (A)
                 (A) (A) (A) (A) (A) (A) (A) (A) (A) (A) (A) (A)
                 (A) (A) (A) (A) (A) (A) (A) (A) (A) (A) (A) (A)
                 (A) (A) (A) (A) (A) (A) (A) (A) (A) (A) (A) (A)
                 (A) (A) (A) (A) (A) (A) (A) (A)
 The electronic state of the initial guess is 1-A.
 Requested convergence on RMS density matrix=1.00D-08 within 128 cycles.
 Requested convergence on MAX density matrix=1.00D-06.
 Requested convergence on             energy=1.00D-06.
 No special actions if energy rises.
 Integral accuracy reduced to 1.0D-05 until final iterations.
 Initial convergence to 1.0D-05 achieved.  Increase integral accuracy.
 SCF Done:  E(RHF) =  -1361.73291612     A.U. after   19 cycles
             Convg  =    0.8439D-08             -V/T =  2.0014

 **********************************************************************

            Population analysis using the SCF density.

 **********************************************************************

 Orbital symmetries:
 BldTbl:  Degeneracy threshold= 1.00D-02
       Occupied  (A) (A) (A) (A) (A) (A) (A) (A) (A) (A) (A) (A)
                 (A) (A) (A) (A) (A) (A) (A) (A) (A) (A) (A) (A)
                 (A) (A) (A) (A) (A) (A) (A) (A) (A) (A) (A) (A)
                 (A) (A) (A) (A) (A) (A) (A) (A) (A) (A) (A) (A)
                 (A) (A) (A) (A) (A) (A) (A) (A) (A) (A) (A) (A)
                 (A) (A) (A) (A) (A) (A) (A) (A) (A) (A) (A) (A)
                 (A) (A) (A) (A)
       Virtual   (A) (A) (A) (A) (A) (A) (A) (A) (A) (A) (A) (A)
                 (A) (A) (A) (A) (A) (A) (A) (A) (A) (A) (A) (A)
                 (A) (A) (A) (A) (A) (A) (A) (A) (A) (A) (A) (A)
                 (A) (A) (A) (A) (A) (A) (A) (A) (A) (A) (A) (A)
                 (A) (A) (A) (A) (A) (A) (A) (A) (A) (A) (A) (A)
                 (A) (A) (A) (A) (A) (A) (A) (A) (A) (A) (A) (A)
                 (A) (A) (A) (A) (A) (A) (A) (A) (A) (A) (A) (A)
                 (A) (A) (A) (A) (A) (A) (A) (A) (A) (A) (A) (A)
                 (A) (A) (A) (A) (A) (A) (A) (A) (A) (A) (A) (A)
                 (A) (A) (A) (A) (A) (A) (A) (A) (A) (A) (A) (A)
                 (A) (A) (A) (A) (A) (A) (A) (A) (A) (A) (A) (A)
                 (A) (A) (A) (A) (A) (A) (A) (A) (A) (A) (A) (A)
                 (A) (A) (A) (A) (A) (A) (A) (A) (A) (A) (A) (A)
                 (A) (A) (A) (A) (A) (A) (A) (A) (A) (A) (A) (A)
                 (A) (A) (A) (A) (A) (A) (A) (A) (A) (A) (A) (A)
                 (A) (A) (A) (A) (A) (A) (A) (A) (A) (A) (A) (A)
                 (A) (A) (A) (A) (A) (A) (A) (A) (A) (A) (A) (A)
                 (A) (A) (A) (A) (A) (A) (A) (A) (A) (A) (A) (A)
                 (A) (A) (A) (A) (A) (A) (A) (A)
 The electronic state is 1-A.
 Alpha  occ. eigenvalues --  -79.63791 -20.44276 -20.42923 -20.41145 -20.37656
 Alpha  occ. eigenvalues --  -20.30539 -20.30462 -20.20661 -20.08194 -20.08097
 Alpha  occ. eigenvalues --  -20.07854 -11.17506 -11.17086 -11.13431 -11.09277
 Alpha  occ. eigenvalues --  -11.05633 -11.02047 -10.97723  -7.15979  -5.05936
 Alpha  occ. eigenvalues --   -5.05730  -5.05712  -1.25879  -1.24986  -1.19362
 Alpha  occ. eigenvalues --   -1.14609  -1.12090  -1.10140  -1.01628  -0.92615
 Alpha  occ. eigenvalues --   -0.90687  -0.86124  -0.82855  -0.82786  -0.77481
 Alpha  occ. eigenvalues --   -0.70868  -0.64914  -0.61285  -0.60522  -0.57211
 Alpha  occ. eigenvalues --   -0.54351  -0.54208  -0.53265  -0.48906  -0.47435
 Alpha  occ. eigenvalues --   -0.46243  -0.43192  -0.42630  -0.41088  -0.39109
 Alpha  occ. eigenvalues --   -0.38372  -0.38236  -0.36199  -0.34245  -0.34007
 Alpha  occ. eigenvalues --   -0.33497  -0.32303  -0.30159  -0.28374  -0.27933
 Alpha  occ. eigenvalues --   -0.26165  -0.25777  -0.24306  -0.21332  -0.19204
 Alpha  occ. eigenvalues --   -0.18073  -0.17013  -0.15769  -0.14638  -0.10524
 Alpha  occ. eigenvalues --   -0.06394  -0.05982  -0.05852  -0.02000  -0.01646
 Alpha  occ. eigenvalues --    0.01719
 Alpha virt. eigenvalues --    0.26016   0.32118   0.34273   0.38030   0.40098
 Alpha virt. eigenvalues --    0.43910   0.46088   0.47706   0.47919   0.51982
 Alpha virt. eigenvalues --    0.53370   0.55133   0.56078   0.58905   0.59021
 Alpha virt. eigenvalues --    0.59655   0.60742   0.63195   0.64090   0.64805
 Alpha virt. eigenvalues --    0.67435   0.68322   0.69008   0.69922   0.71601
 Alpha virt. eigenvalues --    0.74700   0.75702   0.75984   0.76771   0.79988
 Alpha virt. eigenvalues --    0.81067   0.89895   0.90786   0.94845   0.95281
 Alpha virt. eigenvalues --    0.96607   0.96769   0.98116   1.00271   1.02870
 Alpha virt. eigenvalues --    1.03007   1.04246   1.05877   1.06408   1.08844
 Alpha virt. eigenvalues --    1.10308   1.11611   1.12874   1.13670   1.15985
 Alpha virt. eigenvalues --    1.16917   1.18373   1.19453   1.20261   1.21049
 Alpha virt. eigenvalues --    1.24992   1.25795   1.27136   1.27771   1.29458
 Alpha virt. eigenvalues --    1.29925   1.31861   1.32816   1.33704   1.34836
 Alpha virt. eigenvalues --    1.35843   1.36279   1.38449   1.38988   1.39996
 Alpha virt. eigenvalues --    1.41381   1.43090   1.43221   1.43742   1.46531
 Alpha virt. eigenvalues --    1.47041   1.47427   1.48686   1.48859   1.49688
 Alpha virt. eigenvalues --    1.51547   1.53627   1.54025   1.55303   1.56217
 Alpha virt. eigenvalues --    1.57897   1.58949   1.60812   1.62237   1.63242
 Alpha virt. eigenvalues --    1.66825   1.68060   1.69284   1.72402   1.73477
 Alpha virt. eigenvalues --    1.74258   1.74570   1.75037   1.76551   1.77726
 Alpha virt. eigenvalues --    1.78652   1.79874   1.82831   1.84460   1.87161
 Alpha virt. eigenvalues --    1.88067   1.90055   1.91132   1.92307   1.94913
 Alpha virt. eigenvalues --    1.95020   1.96128   1.98527   2.00564   2.01193
 Alpha virt. eigenvalues --    2.02918   2.06235   2.06865   2.07134   2.07834
 Alpha virt. eigenvalues --    2.10908   2.11323   2.14988   2.15702   2.16930
 Alpha virt. eigenvalues --    2.19176   2.22798   2.24097   2.25812   2.26790
 Alpha virt. eigenvalues --    2.27268   2.28715   2.29944   2.31474   2.32501
 Alpha virt. eigenvalues --    2.35294   2.38223   2.39475   2.41318   2.43829
 Alpha virt. eigenvalues --    2.46403   2.48085   2.48456   2.48764   2.51192
 Alpha virt. eigenvalues --    2.51933   2.54265   2.54702   2.55787   2.56209
 Alpha virt. eigenvalues --    2.56350   2.56525   2.57277   2.58386   2.60630
 Alpha virt. eigenvalues --    2.61601   2.62875   2.64087   2.65560   2.67571
 Alpha virt. eigenvalues --    2.71433   2.73332   2.75256   2.76905   2.78267
 Alpha virt. eigenvalues --    2.80042   2.82370   2.82990   2.84391   2.86479
 Alpha virt. eigenvalues --    2.86745   2.87805   2.88821   2.93765   2.95179
 Alpha virt. eigenvalues --    2.97240   3.00466   3.01617   3.03320   3.05862
 Alpha virt. eigenvalues --    3.06881   3.08346   3.08794   3.09379   3.09808
 Alpha virt. eigenvalues --    3.10205   3.15703   3.18600   3.21609   3.22068
 Alpha virt. eigenvalues --    3.24873   3.31634   3.33495   3.36229   3.38570
 Alpha virt. eigenvalues --    3.40555   3.43710   3.49148   3.50233   3.54229
 Alpha virt. eigenvalues --    3.56400   3.57956   3.61029   3.62044   3.62985
 Alpha virt. eigenvalues --    3.66557   4.30026   4.37108   4.39500   4.44548
 Alpha virt. eigenvalues --    4.55266   4.57973   4.59609   4.65621   4.73623
 Alpha virt. eigenvalues --    4.76628   4.82498   4.84083   4.92235   5.02875
 Alpha virt. eigenvalues --    5.08130   5.21981   5.36056   5.39370
          Condensed to atoms (all electrons):
              1          2          3          4          5          6
     1  H    0.523712   0.409253  -0.048394  -0.002575   0.003089   0.000124
     2  C    0.409253   4.768654   0.322980  -0.039517   0.006692  -0.000128
     3  C   -0.048394   0.322980   5.063681   0.319404  -0.060485  -0.001306
     4  C   -0.002575  -0.039517   0.319404   4.801383   0.220695  -0.013892
     5  O    0.003089   0.006692  -0.060485   0.220695   8.660915   0.128283
     6  P    0.000124  -0.000128  -0.001306  -0.013892   0.128283  11.824561
     7  O    0.000005  -0.000008  -0.000047   0.000309  -0.037900   0.558540
     8  C   -0.050932   0.334631  -0.047374   0.002371   0.000207   0.000018
     9  C    0.005266  -0.025513  -0.010690  -0.000087  -0.000001  -0.000001
    10  O   -0.033640   0.211319  -0.045959   0.004459  -0.009801  -0.000195
    11  O   -0.000002   0.000009  -0.000601  -0.005888  -0.036133   0.529364
    12  O    0.000001   0.000001   0.000277   0.005896  -0.037369   0.537131
    13  O    0.001648  -0.052782   0.003301   0.000055  -0.000001   0.000000
    14  H   -0.006680  -0.039241   0.005628  -0.000047   0.000002   0.000000
    15  H   -0.002229  -0.010630  -0.009457  -0.004786   0.032035   0.000895
    16  O    0.004461  -0.047394   0.148904  -0.044674   0.003019   0.000452
    17  H    0.005065  -0.049331   0.388360  -0.053664   0.003031   0.000193
    18  H    0.000058   0.005171  -0.040799   0.380051  -0.034596  -0.003858
    19  H    0.000317  -0.003807  -0.070185   0.376109  -0.047871   0.001320
    20  H   -0.000349   0.006008  -0.000338   0.000007   0.000000   0.000000
    21  H   -0.000152   0.005940  -0.021209  -0.003056  -0.000025  -0.000036
    22  H   -0.000085   0.003689  -0.000427   0.000003   0.000000   0.000000
    23  C    0.000243  -0.006296   0.000268   0.000029  -0.000002   0.000000
    24  O   -0.000089   0.004780  -0.010730   0.000194   0.000000   0.000000
    25  H    0.000007  -0.000364   0.000503  -0.000020   0.000000   0.000000
    26  C    0.000010  -0.000294  -0.000030  -0.000001   0.000000   0.000000
    27  O   -0.000182   0.002442  -0.000453  -0.000026  -0.000001   0.000000
    28  O    0.000000   0.000000   0.000000   0.000000   0.000000   0.000000
    29  H    0.000001   0.000041  -0.000012   0.000001   0.000000   0.000000
    30  H    0.000000  -0.000007   0.000000   0.000000   0.000000   0.000000
    31  H    0.000000   0.000000   0.000000   0.000000   0.000000   0.000000
              7          8          9         10         11         12
     1  H    0.000005  -0.050932   0.005266  -0.033640  -0.000002   0.000001
     2  C   -0.000008   0.334631  -0.025513   0.211319   0.000009   0.000001
     3  C   -0.000047  -0.047374  -0.010690  -0.045959  -0.000601   0.000277
     4  C    0.000309   0.002371  -0.000087   0.004459  -0.005888   0.005896
     5  O   -0.037900   0.000207  -0.000001  -0.009801  -0.036133  -0.037369
     6  P    0.558540   0.000018  -0.000001  -0.000195   0.529364   0.537131
     7  O    8.472532   0.000000   0.000000   0.000000  -0.043174  -0.043449
     8  C    0.000000   4.922962   0.306280  -0.065072   0.000000   0.000000
     9  C    0.000000   0.306280   5.134248   0.009228   0.000000   0.000000
    10  O    0.000000  -0.065072   0.009228   8.624813   0.000000   0.000000
    11  O   -0.043174   0.000000   0.000000   0.000000   8.521630  -0.045123
    12  O   -0.043449   0.000000   0.000000   0.000000  -0.045123   8.516882
    13  O    0.000000   0.186252  -0.050313   0.000892   0.000000   0.000000
    14  H    0.000000   0.425378  -0.078721   0.003131   0.000000   0.000000
    15  H   -0.000081   0.005545  -0.000250   0.238542   0.000019  -0.000041
    16  O    0.000000   0.004046   0.000121   0.001141   0.000009  -0.000001
    17  H    0.000000  -0.005907   0.001011   0.003846  -0.000004   0.000003
    18  H   -0.000024  -0.000067   0.000002   0.000034   0.017303  -0.001225
    19  H   -0.000064   0.000055  -0.000050   0.002556   0.000010   0.003532
    20  H    0.000000  -0.028020  -0.004968  -0.000104   0.000000   0.000000
    21  H    0.000000  -0.000363  -0.000023  -0.000100   0.000120   0.000000
    22  H    0.000000  -0.047530   0.395353  -0.000253   0.000000   0.000000
    23  C    0.000000  -0.057401   0.280794   0.007242   0.000000   0.000000
    24  O    0.000000  -0.055689   0.176685   0.000001   0.000000   0.000000
    25  H    0.000000   0.006284  -0.018973  -0.000011   0.000000   0.000000
    26  C    0.000000   0.007018  -0.127076  -0.000384   0.000000   0.000000
    27  O    0.000000   0.007607  -0.067883  -0.169332   0.000000   0.000000
    28  O    0.000000  -0.000034   0.001988  -0.000001   0.000000   0.000000
    29  H    0.000000  -0.000645   0.001623   0.000113   0.000000   0.000000
    30  H    0.000000  -0.000106   0.004606  -0.000016   0.000000   0.000000
    31  H    0.000000   0.000005  -0.000284   0.000000   0.000000   0.000000
             13         14         15         16         17         18
     1  H    0.001648  -0.006680  -0.002229   0.004461   0.005065   0.000058
     2  C   -0.052782  -0.039241  -0.010630  -0.047394  -0.049331   0.005171
     3  C    0.003301   0.005628  -0.009457   0.148904   0.388360  -0.040799
     4  C    0.000055  -0.000047  -0.004786  -0.044674  -0.053664   0.380051
     5  O   -0.000001   0.000002   0.032035   0.003019   0.003031  -0.034596
     6  P    0.000000   0.000000   0.000895   0.000452   0.000193  -0.003858
     7  O    0.000000   0.000000  -0.000081   0.000000   0.000000  -0.000024
     8  C    0.186252   0.425378   0.005545   0.004046  -0.005907  -0.000067
     9  C   -0.050313  -0.078721  -0.000250   0.000121   0.001011   0.000002
    10  O    0.000892   0.003131   0.238542   0.001141   0.003846   0.000034
    11  O    0.000000   0.000000   0.000019   0.000009  -0.000004   0.017303
    12  O    0.000000   0.000000  -0.000041  -0.000001   0.000003  -0.001225
    13  O    8.430605  -0.042386  -0.000060  -0.002086  -0.000225  -0.000001
    14  H   -0.042386   0.581305  -0.000156  -0.000219  -0.000053   0.000001
    15  H   -0.000060  -0.000156   0.250689  -0.000086  -0.000039   0.001110
    16  O   -0.002086  -0.000219  -0.000086   8.474642  -0.042153  -0.005321
    17  H   -0.000225  -0.000053  -0.000039  -0.042153   0.616150  -0.000267
    18  H   -0.000001   0.000001   0.001110  -0.005321  -0.000267   0.594754
    19  H    0.000000   0.000003  -0.004662   0.004788   0.006671  -0.048442
    20  H    0.255110  -0.004273   0.000006   0.000319  -0.000121   0.000000
    21  H    0.000215   0.000013   0.000003   0.258061  -0.003213   0.005514
    22  H   -0.004663  -0.004728   0.000008   0.000006   0.000112   0.000000
    23  C    0.005803   0.005070  -0.000163   0.000008   0.000448  -0.000002
    24  O    0.000053   0.003803  -0.000008   0.000248  -0.007249  -0.000001
    25  H   -0.000215  -0.000227   0.000001  -0.000014   0.001117   0.000000
    26  C   -0.000172  -0.000202   0.000013   0.000000   0.000009   0.000000
    27  O    0.000154  -0.000268   0.004194   0.000000   0.000100   0.000000
    28  O    0.000000   0.000001   0.000000   0.000000   0.000000   0.000000
    29  H    0.000000  -0.000003  -0.000003   0.000000  -0.000008   0.000000
    30  H   -0.000002   0.000001   0.000000   0.000000   0.000000   0.000000
    31  H    0.000000   0.000000   0.000000   0.000000   0.000000   0.000000
             19         20         21         22         23         24
     1  H    0.000317  -0.000349  -0.000152  -0.000085   0.000243  -0.000089
     2  C   -0.003807   0.006008   0.005940   0.003689  -0.006296   0.004780
     3  C   -0.070185  -0.000338  -0.021209  -0.000427   0.000268  -0.010730
     4  C    0.376109   0.000007  -0.003056   0.000003   0.000029   0.000194
     5  O   -0.047871   0.000000  -0.000025   0.000000  -0.000002   0.000000
     6  P    0.001320   0.000000  -0.000036   0.000000   0.000000   0.000000
     7  O   -0.000064   0.000000   0.000000   0.000000   0.000000   0.000000
     8  C    0.000055  -0.028020  -0.000363  -0.047530  -0.057401  -0.055689
     9  C   -0.000050  -0.004968  -0.000023   0.395353   0.280794   0.176685
    10  O    0.002556  -0.000104  -0.000100  -0.000253   0.007242   0.000001
    11  O    0.000010   0.000000   0.000120   0.000000   0.000000   0.000000
    12  O    0.003532   0.000000   0.000000   0.000000   0.000000   0.000000
    13  O    0.000000   0.255110   0.000215  -0.004663   0.005803   0.000053
    14  H    0.000003  -0.004273   0.000013  -0.004728   0.005070   0.003803
    15  H   -0.004662   0.000006   0.000003   0.000008  -0.000163  -0.000008
    16  O    0.004788   0.000319   0.258061   0.000006   0.000008   0.000248
    17  H    0.006671  -0.000121  -0.003213   0.000112   0.000448  -0.007249
    18  H   -0.048442   0.000000   0.005514   0.000000  -0.000002  -0.000001
    19  H    0.690628   0.000000  -0.000102   0.000000   0.000080  -0.000008
    20  H    0.000000   0.367503  -0.000019   0.005828   0.000318   0.000152
    21  H   -0.000102  -0.000019   0.333327  -0.000001  -0.000001   0.000011
    22  H    0.000000   0.005828  -0.000001   0.623938  -0.048174  -0.045451
    23  C    0.000080   0.000318  -0.000001  -0.048174   4.880028  -0.047204
    24  O   -0.000008   0.000152   0.000011  -0.045451  -0.047204   8.442843
    25  H    0.000001  -0.000108   0.000000  -0.004568  -0.010293   0.253994
    26  C   -0.000002  -0.000025   0.000000  -0.004865   0.261002  -0.000562
    27  O   -0.000016   0.000003   0.000000   0.003089   0.444996   0.000224
    28  O    0.000000   0.000000   0.000000  -0.000016  -0.044817   0.000145
    29  H    0.000002  -0.000001   0.000000   0.001693  -0.053744   0.004177
    30  H    0.000000  -0.000006   0.000000   0.001126  -0.056354   0.000419
    31  H    0.000000   0.000000   0.000000   0.000000   0.007422   0.000013
             25         26         27         28         29         30
     1  H    0.000007   0.000010  -0.000182   0.000000   0.000001   0.000000
     2  C   -0.000364  -0.000294   0.002442   0.000000   0.000041  -0.000007
     3  C    0.000503  -0.000030  -0.000453   0.000000  -0.000012   0.000000
     4  C   -0.000020  -0.000001  -0.000026   0.000000   0.000001   0.000000
     5  O    0.000000   0.000000  -0.000001   0.000000   0.000000   0.000000
     6  P    0.000000   0.000000   0.000000   0.000000   0.000000   0.000000
     7  O    0.000000   0.000000   0.000000   0.000000   0.000000   0.000000
     8  C    0.006284   0.007018   0.007607  -0.000034  -0.000645  -0.000106
     9  C   -0.018973  -0.127076  -0.067883   0.001988   0.001623   0.004606
    10  O   -0.000011  -0.000384  -0.169332  -0.000001   0.000113  -0.000016
    11  O    0.000000   0.000000   0.000000   0.000000   0.000000   0.000000
    12  O    0.000000   0.000000   0.000000   0.000000   0.000000   0.000000
    13  O   -0.000215  -0.000172   0.000154   0.000000   0.000000  -0.000002
    14  H   -0.000227  -0.000202  -0.000268   0.000001  -0.000003   0.000001
    15  H    0.000001   0.000013   0.004194   0.000000  -0.000003   0.000000
    16  O   -0.000014   0.000000   0.000000   0.000000   0.000000   0.000000
    17  H    0.001117   0.000009   0.000100   0.000000  -0.000008   0.000000
    18  H    0.000000   0.000000   0.000000   0.000000   0.000000   0.000000
    19  H    0.000001  -0.000002  -0.000016   0.000000   0.000002   0.000000
    20  H   -0.000108  -0.000025   0.000003   0.000000  -0.000001  -0.000006
    21  H    0.000000   0.000000   0.000000   0.000000   0.000000   0.000000
    22  H   -0.004568  -0.004865   0.003089  -0.000016   0.001693   0.001126
    23  C   -0.010293   0.261002   0.444996  -0.044817  -0.053744  -0.056354
    24  O    0.253994  -0.000562   0.000224   0.000145   0.004177   0.000419
    25  H    0.331643   0.007163  -0.000013  -0.000143   0.003125  -0.000630
    26  C    0.007163   4.965239  -0.038097   0.217557   0.392934   0.398904
    27  O   -0.000013  -0.038097   8.254818   0.001151  -0.000105   0.000131
    28  O   -0.000143   0.217557   0.001151   8.351341  -0.033558  -0.038222
    29  H    0.003125   0.392934  -0.000105  -0.033558   0.574392  -0.044604
    30  H   -0.000630   0.398904   0.000131  -0.038222  -0.044604   0.583136
    31  H    0.000017  -0.024455   0.000019   0.258572  -0.003092  -0.003581
             31
     1  H    0.000000
     2  C    0.000000
     3  C    0.000000
     4  C    0.000000
     5  O    0.000000
     6  P    0.000000
     7  O    0.000000
     8  C    0.000005
     9  C   -0.000284
    10  O    0.000000
    11  O    0.000000
    12  O    0.000000
    13  O    0.000000
    14  H    0.000000
    15  H    0.000000
    16  O    0.000000
    17  H    0.000000
    18  H    0.000000
    19  H    0.000000
    20  H    0.000000
    21  H    0.000000
    22  H    0.000000
    23  C    0.007422
    24  O    0.000013
    25  H    0.000017
    26  C   -0.024455
    27  O    0.000019
    28  O    0.258572
    29  H   -0.003092
    30  H   -0.003581
    31  H    0.340605
 Mulliken atomic charges:
              1
     1  H    0.192050
     2  C    0.193700
     3  C    0.115189
     4  C    0.057268
     5  O   -0.793783
     6  P    1.438537
     7  O   -0.906638
     8  C    0.150480
     9  C    0.067628
    10  O   -0.782446
    11  O   -0.937539
    12  O   -0.936516
    13  O   -0.731181
    14  H    0.152868
    15  H    0.499592
    16  O   -0.758277
    17  H    0.136119
    18  H    0.130605
    19  H    0.089137
    20  H    0.403077
    21  H    0.425096
    22  H    0.125915
    23  C    0.430703
    24  O   -0.720750
    25  H    0.431728
    26  C   -0.053682
    27  O   -0.442552
    28  O   -0.713964
    29  H    0.157676
    30  H    0.155204
    31  H    0.424758
 Sum of Mulliken atomic charges =  -2.00000
 Mulliken charges with hydrogens summed into heavy atoms:
              1
     2  C    0.385749
     3  C    0.251308
     4  C    0.277009
     5  O   -0.793783
     6  P    1.438537
     7  O   -0.906638
     8  C    0.303349
     9  C    0.193543
    10  O   -0.282855
    11  O   -0.937539
    12  O   -0.936516
    13  O   -0.328105
    16  O   -0.333181
    23  C    0.430703
    24  O   -0.289022
    26  C    0.259198
    27  O   -0.442552
    28  O   -0.289206
 Sum of Mulliken charges with hydrogens summed into heavy atoms =  -2.00000
 DipInt: DoE/N= T F RetVal/Mat= T F Init=T NMatP=  1 IDeriv=0 Min/MaxMlt=  0  4
 Entering OneElI...
 OneElI was handed    33321778 working-precision words.
 Multipole integrals L=0 to 4 MinM= 0 MaxM= 0.
 Requested accuracy = 0.1000D-12
 PrsmSu:  NPrtUS=   1 ThrOK=F IAlg=1 NPAlg=1 LenDen=           0.
 Prism:   IPart=     0 DynPar=F LinDyn=F Incr=          39.
 PRISM was handed    32963360 working-precision words and  3940 shell-pairs
 IPart=  0 NShTot=        3940 NBatch=          80 AvBLen=        49.3
 PrSmSu:  NxtVal=             40.
 Electronic moments (au):
       -152.00000000         14.97157910          2.08782162         -1.71226293
      -4994.47976910      -1122.57482345       -478.32243498        -11.63633084
         -8.33640210          3.79222869       5146.13651718       -358.88885708
        -93.19430656      -2357.75096253       5756.16999167       1168.65483778
         17.55964994          7.28033919        156.06478027       -510.36511725
    -277937.77624655     -21148.48429616      -3570.41108109      12138.73914830
       9402.00868704       3856.45610096      -1883.37714187        921.40531557
        394.70038833     -36791.40285486     -15063.37030692      -2875.36187786
      -2574.29790092       -810.69754943       -758.95306614
 Electronic spatial extent (au):  <R**2>=           6595.3770
 DipInt: DoE/N= F T RetVal/Mat= T F Init=T NMatP=  1 IDeriv=0 Min/MaxMlt=  0  4
 Nuclear    moments (au):
        150.00000000          0.00000000          0.00000000          0.00000000
       4816.97066042       1015.27227756        386.43833460          0.00000000
          0.00000000          0.00000000      -3990.29333308        380.85771851
         64.74686909       2444.99307339      -5641.34769403      -1251.41855235
         81.21845988         13.72935462       -168.43222316        558.83323388
     255846.13937637      17360.72736623       2033.04343785     -13130.45084871
     -10004.29637492      -4153.55876202       1844.48720958       -980.47885987
       -394.05896686      33017.44571492      11561.56603326       2054.16998770
       2983.93305965        595.96760979        587.59750629
 Total      moments (au):
         -2.00000000         14.97157910          2.08782162         -1.71226293
       -177.50910868       -107.30254589        -91.88410037        -11.63633084
         -8.33640210          3.79222869       1155.84318410         21.96886143
        -28.44743748         87.24211086        114.82229764        -82.76371457
         98.77810982         21.00969381        -12.36744289         48.46811663
     -22091.63687018      -3787.75692993      -1537.36764324       -991.71170042
       -602.28768789       -297.10266105        -38.88993230        -59.07354430
          0.64142147      -3773.95713994      -3501.80427366       -821.19189016
        409.63515874       -214.72993965       -171.35555985
 Traceless Quadrup. (au):
        -51.94385704         18.26270576         33.68115128        -11.63633084
         -8.33640210          3.79222869
 Charge=             -2.0000 electrons
 Dipole moment (field-independent basis, Debye):
    X=             38.0540    Y=              5.3067    Z=             -4.3521  Tot=             38.6679
 Quadrupole moment (field-independent basis, Debye-Ang):
   XX=           -238.7558   YY=           -144.3256   ZZ=           -123.5873
   XY=            -15.6513   XZ=            -11.2127   YZ=              5.1007
 Traceless Quadrupole moment (field-independent basis, Debye-Ang):
   XX=            -69.8663   YY=             24.5640   ZZ=             45.3023
   XY=            -15.6513   XZ=            -11.2127   YZ=              5.1007
 Octapole moment (field-independent basis, Debye-Ang**2):
  XXX=            822.6846  YYY=             15.6366  ZZZ=            -20.2478  XYY=             62.0956
  XXY=             81.7261  XXZ=            -58.9080  XZZ=             70.3064  YZZ=             14.9539
  YYZ=             -8.8027  XYZ=             34.4977
 Hexadecapole moment (field-independent basis, Debye-Ang**3):
 XXXX=          -8320.7692 YYYY=          -1426.6508 ZZZZ=           -579.0463 XXXY=           -373.5262
 XXXZ=           -226.8504 YYYX=           -111.9031 YYYZ=            -14.6478 ZZZX=            -22.2499
 ZZZY=              0.2416 XXYY=          -1421.4531 XXZZ=          -1318.9473 YYZZ=           -309.3002
 XXYZ=            154.2882 YYXZ=            -80.8776 ZZXY=            -64.5407
 N-N= 1.657555813750D+03 E-N=-6.580753533009D+03  KE= 1.359864324291D+03
 Entering OneElI...
 OneElI was handed    33140703 working-precision words.
 Calculate electrostatic properties
    NBasis =   300  MinDer = 0  MaxDer = 0
    NGrid  =    31  NMatD  =   1
 Requested accuracy = 0.1000D-12
 PrsmSu:  NPrtUS=   1 ThrOK=F IAlg=1 NPAlg=1 LenDen=           0.
 Prism:   IPart=     0 DynPar=F LinDyn=F Incr=         512.
 PRISM was handed    32815433 working-precision words and  3530 shell-pairs
 IPart=  0 NShTot=      109430 NBatch=        3530 AvBLen=        31.0
 PrSmSu:  NxtVal=            513.
 --------------------------------------------------------
       Center         ----      EFG at Nuclei      ----
                      3XX-RR        3YY-RR        3ZZ-RR
 --------------------------------------------------------
     1   Atom        0.048554      0.049137     -0.097691
     2   Atom        0.028601     -0.247961      0.219360
     3   Atom        0.158705     -0.257901      0.099196
     4   Atom       -0.038641      0.105537     -0.066896
     5   Atom       -0.779374      1.323974     -0.544599
     6   Atom       -1.090891      0.462986      0.627905
     7   Atom        0.158565      0.591093     -0.749658
     8   Atom        0.214870     -0.347996      0.133126
     9   Atom        0.133224      0.151300     -0.284524
    10   Atom       -0.315397     -1.325687      1.641084
    11   Atom        0.109480     -0.287494      0.178014
    12   Atom        0.314814     -0.545588      0.230775
    13   Atom       -0.641587     -1.190337      1.831924
    14   Atom        0.100605      0.146012     -0.246617
    15   Atom       -0.392526      0.139977      0.252549
    16   Atom        1.027223     -0.752021     -0.275202
    17   Atom       -0.047051      0.148183     -0.101132
    18   Atom        0.049596      0.066911     -0.116507
    19   Atom        0.090363     -0.184484      0.094121
    20   Atom       -0.429660      0.129628      0.300032
    21   Atom        0.121358      0.200550     -0.321908
    22   Atom       -0.183465      0.052359      0.131106
    23   Atom       -0.204543      0.349066     -0.144524
    24   Atom        0.215229      1.473131     -1.688359
    25   Atom       -0.141808      0.181054     -0.039246
    26   Atom        0.145915     -0.305151      0.159236
    27   Atom       -1.034490      1.984383     -0.949892
    28   Atom        0.463103     -1.296610      0.833507
    29   Atom        0.138976      0.115386     -0.254363
    30   Atom       -0.184770      0.041615      0.143155
    31   Atom       -0.129966      0.137152     -0.007186
 --------------------------------------------------------
                        XY            XZ            YZ
 --------------------------------------------------------
     1   Atom        0.094060      0.156067     -0.153401
     2   Atom       -0.074846     -0.003265      0.086840
     3   Atom        0.224654     -0.036238      0.005565
     4   Atom       -0.075881      0.122235     -0.000346
     5   Atom       -0.582192      0.973852      0.314116
     6   Atom       -0.453152     -0.285243     -0.071357
     7   Atom       -0.103564      0.441990      0.082912
     8   Atom        0.071730      0.022407      0.077293
     9   Atom       -0.070445     -0.200014      0.111502
    10   Atom       -0.750766     -0.084037      0.524066
    11   Atom        0.336717     -0.271795      0.637346
    12   Atom        0.034100      0.070093     -0.647399
    13   Atom       -0.925938     -0.096432      0.452176
    14   Atom        0.022589     -0.136282      0.049807
    15   Atom       -0.197767     -0.043963      0.003280
    16   Atom        1.146291     -1.095354      0.441919
    17   Atom        0.033320      0.221957     -0.025301
    18   Atom        0.084636     -0.166948      0.152969
    19   Atom        0.144853      0.061777     -0.132911
    20   Atom       -0.263461     -0.019974      0.002863
    21   Atom        0.094636     -0.325915      0.134274
    22   Atom       -0.176939     -0.079352     -0.046041
    23   Atom       -0.199730     -0.365614     -0.089746
    24   Atom        0.854434      0.460191     -0.105141
    25   Atom        0.224610      0.326602     -0.156335
    26   Atom        0.038568     -0.038958      0.072704
    27   Atom       -1.465192     -0.516366      0.805541
    28   Atom        0.954308      1.212604     -0.071901
    29   Atom        0.031698     -0.100425      0.076251
    30   Atom       -0.175833     -0.075373     -0.046092
    31   Atom        0.204482      0.359450     -0.154994
 --------------------------------------------------------


 ---------------------------------------------------------------------------------
              Nuclear Quadrupole in Principal Axis System
 ---------------------------------------------------------------------------------

       Atom             a.u.   MegaHertz   Gauss  10(-4) cm-1        Axes

              Baa    -0.2919  -155.719   -55.564   -51.942 -0.4719  0.4667  0.7480
     1 H(1)   Bbb     0.1427    76.159    27.175    25.404  0.6089  0.7861 -0.1063
              Bcc     0.1491    79.560    28.389    26.538  0.6376 -0.4053  0.6551
 
              Baa    -0.2809   -37.690   -13.449   -12.572  0.2302  0.9591 -0.1650
     2 C(13)  Bbb     0.0445     5.974     2.132     1.993  0.9696 -0.2115  0.1232
              Bcc     0.2364    31.716    11.317    10.579 -0.0832  0.1883  0.9786
 
              Baa    -0.3568   -47.880   -17.085   -15.971 -0.4017  0.9148 -0.0431
     3 C(13)  Bbb     0.0941    12.633     4.508     4.214  0.1543  0.1140  0.9814
              Bcc     0.2627    35.247    12.577    11.757  0.9027  0.3876 -0.1869
 
              Baa    -0.1849   -24.812    -8.853    -8.276 -0.6837 -0.1778  0.7077
     4 C(13)  Bbb     0.0323     4.341     1.549     1.448  0.5274  0.5499  0.6477
              Bcc     0.1525    20.471     7.304     6.828 -0.5043  0.8161 -0.2822
 
              Baa    -1.7771   128.590    45.884    42.893  0.7422  0.2040 -0.6384
     5 O(17)  Bbb     0.3004   -21.739    -7.757    -7.251  0.6279  0.1213  0.7688
              Bcc     1.4767  -106.851   -38.127   -35.642 -0.2342  0.9714  0.0381
 
              Baa    -1.2592  -272.215   -97.133   -90.801  0.9540  0.2574  0.1539
     6 P(31)  Bbb     0.5851   126.498    45.138    42.195 -0.2508  0.9661 -0.0610
              Bcc     0.6740   145.717    51.995    48.606 -0.1644  0.0196  0.9862
 
              Baa    -0.9380    67.875    24.220    22.641 -0.3789 -0.0757  0.9223
     7 O(17)  Bbb     0.3231   -23.380    -8.343    -7.799  0.8943  0.2262  0.3860
              Bcc     0.6149   -44.495   -15.877   -14.842 -0.2379  0.9711 -0.0180
 
              Baa    -0.3679   -49.373   -17.617   -16.469 -0.1153  0.9825 -0.1464
     8 C(13)  Bbb     0.1331    17.860     6.373     5.957 -0.3428  0.0990  0.9342
              Bcc     0.2348    31.513    11.245    10.512  0.9323  0.1579  0.3254
 
              Baa    -0.3766   -50.532   -18.031   -16.856  0.3431 -0.1501  0.9272
     9 C(13)  Bbb     0.0795    10.663     3.805     3.557  0.6235  0.7747 -0.1053
              Bcc     0.2971    39.870    14.227    13.299  0.7026 -0.6142 -0.3593
 
              Baa    -1.7786   128.700    45.924    42.930  0.4473  0.8857 -0.1247
    10 O(17)  Bbb     0.0246    -1.779    -0.635    -0.594  0.8877 -0.4225  0.1831
              Bcc     1.7540  -126.921   -45.289   -42.336 -0.1095  0.1926  0.9751
 
              Baa    -0.9152    66.225    23.631    22.090 -0.3884  0.7508 -0.5343
    11 O(17)  Bbb     0.2891   -20.921    -7.465    -6.978  0.9182  0.3645 -0.1553
              Bcc     0.6261   -45.305   -16.166   -15.112 -0.0781  0.5509  0.8309
 
              Baa    -0.9156    66.254    23.641    22.100 -0.0522  0.8682  0.4935
    12 O(17)  Bbb     0.3114   -22.530    -8.039    -7.515  0.9870  0.1202 -0.1071
              Bcc     0.6043   -43.724   -15.602   -14.585  0.1523 -0.4815  0.8631
 
              Baa    -1.9069   137.984    49.236    46.027  0.5844  0.8072 -0.0826
    13 O(17)  Bbb    -0.0140     1.016     0.362     0.339  0.8054 -0.5646  0.1804
              Bcc     1.9210  -139.000   -49.599   -46.365 -0.0990  0.1719  0.9801
 
              Baa    -0.3004  -160.259   -57.184   -53.457  0.3255 -0.1211  0.9377
    14 H(1)   Bbb     0.1446    77.132    27.523    25.729  0.7808 -0.5249 -0.3389
              Bcc     0.1558    83.126    29.662    27.728  0.5333  0.8425 -0.0763
 
              Baa    -0.4603  -245.576   -87.628   -81.915  0.9483  0.3121  0.0571
    15 H(1)   Bbb     0.2002   106.804    38.110    35.626 -0.2827  0.9129 -0.2945
              Bcc     0.2601   138.772    49.517    46.289 -0.1440  0.2632  0.9539
 
              Baa    -1.8623   134.754    48.083    44.949 -0.4784  0.7032 -0.5260
    16 O(17)  Bbb    -0.0467     3.381     1.207     1.128  0.0981  0.6380  0.7638
              Bcc     1.9090  -138.135   -49.290   -46.077  0.8727  0.3138 -0.3741
 
              Baa    -0.3014  -160.832   -57.389   -53.648 -0.6615  0.0909  0.7444
    17 H(1)   Bbb     0.1425    76.027    27.128    25.360 -0.5268  0.6502 -0.5475
              Bcc     0.1589    84.805    30.261    28.288  0.5338  0.7543  0.3822
 
              Baa    -0.3025  -161.396   -57.590   -53.836  0.4692 -0.4275  0.7727
    18 H(1)   Bbb     0.1433    76.440    27.276    25.498  0.7078  0.7053 -0.0396
              Bcc     0.1592    84.956    30.314    28.338 -0.5281  0.5656  0.6335
 
              Baa    -0.3010  -160.626   -57.315   -53.579 -0.3732  0.8602  0.3476
    19 H(1)   Bbb     0.1460    77.897    27.796    25.984 -0.3589 -0.4794  0.8009
              Bcc     0.1551    82.729    29.520    27.595  0.8555  0.1741  0.4876
 
              Baa    -0.5346  -285.230  -101.777   -95.143  0.9294  0.3685  0.0210
    20 H(1)   Bbb     0.2327   124.159    44.303    41.415 -0.3618  0.9207 -0.1465
              Bcc     0.3019   161.071    57.474    53.728 -0.0733  0.1285  0.9890
 
              Baa    -0.5307  -283.179  -101.045   -94.458  0.4614 -0.2176  0.8601
    21 H(1)   Bbb     0.2304   122.905    43.856    40.997 -0.1716  0.9292  0.3272
              Bcc     0.3004   160.274    57.190    53.462  0.8704  0.2986 -0.3914
 
              Baa    -0.2978  -158.883   -56.693   -52.998  0.8615  0.4628  0.2091
    22 H(1)   Bbb     0.1453    77.537    27.667    25.864 -0.5024  0.7162  0.4844
              Bcc     0.1525    81.346    29.026    27.134  0.0745 -0.5223  0.8495
 
              Baa    -0.5877   -78.868   -28.142   -26.308  0.7308  0.2178  0.6469
    23 C(13)  Bbb     0.1721    23.090     8.239     7.702 -0.5885 -0.2793  0.7587
              Bcc     0.4157    55.778    19.903    18.605 -0.3459  0.9352  0.0760
 
              Baa    -1.8225   131.877    47.057    43.990 -0.2580  0.0975  0.9612
    24 O(17)  Bbb    -0.0863     6.245     2.228     2.083  0.8511 -0.4479  0.2739
              Bcc     1.9088  -138.123   -49.286   -46.073  0.4572  0.8888  0.0325
 
              Baa    -0.5261  -280.717  -100.167   -93.637  0.7173 -0.3597 -0.5967
    25 H(1)   Bbb     0.2289   122.141    43.583    40.742  0.4744 -0.3750  0.7964
              Bcc     0.2972   158.576    56.584    52.895  0.5103  0.8544  0.0984
 
              Baa    -0.3204   -43.000   -15.344   -14.343 -0.0944  0.9831 -0.1567
    26 C(13)  Bbb     0.1261    16.926     6.040     5.646  0.8016  0.1684  0.5737
              Bcc     0.1943    26.074     9.304     8.697 -0.5904  0.0714  0.8040
 
              Baa    -1.6870   122.070    43.558    40.718  0.9035  0.2916  0.3142
    27 O(17)  Bbb    -1.1270    81.550    29.099    27.202 -0.2105 -0.3367  0.9178
              Bcc     2.8140  -203.621   -72.657   -67.921 -0.3734  0.8953  0.2428
 
              Baa    -1.8501   133.875    47.770    44.656 -0.4740  0.8480  0.2369
    28 O(17)  Bbb    -0.1305     9.442     3.369     3.150 -0.5577 -0.4974  0.6645
              Bcc     1.9806  -143.317   -51.139   -47.805  0.6813  0.1828  0.7088
 
              Baa    -0.2947  -157.264   -56.116   -52.458  0.2348 -0.1952  0.9523
    29 H(1)   Bbb     0.1271    67.815    24.198    22.621 -0.2805  0.9244  0.2586
              Bcc     0.1676    89.449    31.918    29.837  0.9307  0.3278 -0.1623
 
              Baa    -0.2983  -159.176   -56.798   -53.095  0.8599  0.4713  0.1960
    30 H(1)   Bbb     0.1368    72.978    26.040    24.343 -0.5033  0.8469  0.1717
              Bcc     0.1616    86.198    30.758    28.753 -0.0851 -0.2463  0.9655
 
              Baa    -0.5315  -283.562  -101.182   -94.586  0.7174 -0.3580 -0.5977
    31 H(1)   Bbb     0.2329   124.254    44.337    41.447  0.1440  0.9156 -0.3754
              Bcc     0.2986   159.309    56.845    53.140  0.6816  0.1832  0.7084
 

 ---------------------------------------------------------------------------------

 No NMR shielding tensors so no spin-rotation constants.
 Leave Link  601 at Wed Jul  9 15:54:19 2014, MaxMem=   33554432 cpu:       0.5
 Merz-Kollman atomic radii used.
 Atom Element Radius
    1     1    1.20
    2     6    1.50
    3     6    1.50
    4     6    1.50
    5     8    1.40
    6    15    1.80
    7     8    1.40
    8     6    1.50
    9     6    1.50
   10     8    1.40
   11     8    1.40
   12     8    1.40
   13     8    1.40
   14     1    1.20
   15     1    1.20
   16     8    1.40
   17     1    1.20
   18     1    1.20
   19     1    1.20
   20     1    1.20
   21     1    1.20
   22     1    1.20
   23     6    1.50
   24     8    1.40
   25     1    1.20
   26     6    1.50
   27     8    1.40
   28     8    1.40
   29     1    1.20
   30     1    1.20
   31     1    1.20
 Generate VDW surfaces: Layer= 4 Dens= 6 Start= 1.400 Inc= 0.200

 **********************************************************************

            Electrostatic Properties Using The SCF Density

 **********************************************************************

       Atomic Center    1 is at  -0.045479  1.222295  1.644054
       Atomic Center    2 is at   0.489885  0.727942  0.833436
       Atomic Center    3 is at  -0.222675  1.014337 -0.511171
       Atomic Center    4 is at  -1.417750  0.093717 -0.837618
       Atomic Center    5 is at  -2.237267 -0.118972  0.256512
       Atomic Center    6 is at  -3.904430 -0.576583 -0.033068
       Atomic Center    7 is at  -4.419132 -0.674984  1.378714
       Atomic Center    8 is at   1.953966  1.224010  0.881488
       Atomic Center    9 is at   2.994387  0.707604  0.013531
       Atomic Center   10 is at   0.492289 -0.661140  1.104655
       Atomic Center   11 is at  -4.436070  0.577220 -0.850328
       Atomic Center   12 is at  -3.779303 -1.880144 -0.783646
       Atomic Center   13 is at   1.913289  2.602915  0.642810
       Atomic Center   14 is at   2.303927  1.091148  1.901593
       Atomic Center   15 is at  -0.420594 -0.934101  1.044341
       Atomic Center   16 is at  -0.662945  2.343040 -0.484503
       Atomic Center   17 is at   0.503831  0.930796 -1.308978
       Atomic Center   18 is at  -1.976820  0.541357 -1.654735
       Atomic Center   19 is at  -1.028074 -0.856715 -1.208749
       Atomic Center   20 is at   2.793043  2.952831  0.662851
       Atomic Center   21 is at  -1.103942  2.545840 -1.297647
       Atomic Center   22 is at   3.934719  1.210109  0.235310
       Atomic Center   23 is at   3.144344 -0.717695  0.233839
       Atomic Center   24 is at   2.645271  0.939145 -1.322323
       Atomic Center   25 is at   3.324774  0.601879 -1.889189
       Atomic Center   26 is at   4.184765 -1.234100 -0.634118
       Atomic Center   27 is at   2.338336 -1.369137  1.175101
       Atomic Center   28 is at   4.329552 -2.610252 -0.421407
       Atomic Center   29 is at   3.913204 -1.053995 -1.673222
       Atomic Center   30 is at   5.125098 -0.731596 -0.412339
       Atomic Center   31 is at   5.009055 -2.947518 -0.988272
      ESP Fit Center   32 is at  -0.045479  1.222295  3.324054
      ESP Fit Center   33 is at   0.389337  1.222295  3.266810
      ESP Fit Center   34 is at   0.171929  1.598856  3.266810
      ESP Fit Center   35 is at  -0.262887  1.598856  3.266810
      ESP Fit Center   36 is at  -0.480295  1.222295  3.266810
      ESP Fit Center   37 is at  -0.262887  0.845733  3.266810
      ESP Fit Center   38 is at   0.171929  0.845733  3.266810
      ESP Fit Center   39 is at   0.794521  1.222295  3.098977
      ESP Fit Center   40 is at   0.681983  1.642295  3.098977
      ESP Fit Center   41 is at   0.374521  1.949756  3.098977
      ESP Fit Center   42 is at  -0.045479  2.062295  3.098977
      ESP Fit Center   43 is at  -0.465479  1.949756  3.098977
      ESP Fit Center   44 is at  -0.772940  1.642295  3.098977
      ESP Fit Center   45 is at  -0.885479  1.222295  3.098977
      ESP Fit Center   46 is at  -0.772940  0.802295  3.098977
      ESP Fit Center   47 is at  -0.465479  0.494833  3.098977
      ESP Fit Center   48 is at  -0.045479  0.382295  3.098977
      ESP Fit Center   49 is at   0.374521  0.494833  3.098977
      ESP Fit Center   50 is at   0.681983  0.802295  3.098977
      ESP Fit Center   51 is at   0.832419  2.022604  2.831994
      ESP Fit Center   52 is at   0.484031  2.285695  2.831994
      ESP Fit Center   53 is at   0.064131  2.405167  2.831994
      ESP Fit Center   54 is at  -0.370574  2.364885  2.831994
      ESP Fit Center   55 is at  -0.761372  2.170291  2.831994
      ESP Fit Center   56 is at  -1.055485  1.847664  2.831994
      ESP Fit Center   57 is at  -1.213191  1.440578  2.831994
      ESP Fit Center   58 is at  -1.213191  1.004011  2.831994
      ESP Fit Center   59 is at  -1.055485  0.596925  2.831994
      ESP Fit Center   60 is at  -0.761372  0.274299  2.831994
      ESP Fit Center   61 is at  -0.370574  0.079704  2.831994
      ESP Fit Center   62 is at   0.861651  2.359799  2.484054
      ESP Fit Center   63 is at   0.486064  2.576644  2.484054
      ESP Fit Center   64 is at   0.063248  2.673149  2.484054
      ESP Fit Center   65 is at  -0.369229  2.640740  2.484054
      ESP Fit Center   66 is at  -0.772940  2.482295  2.484054
      ESP Fit Center   67 is at  -1.112012  2.211894  2.484054
      ESP Fit Center   68 is at  -1.356319  1.853562  2.484054
      ESP Fit Center   69 is at  -1.484151  1.439140  2.484054
      ESP Fit Center   70 is at  -1.484151  1.005450  2.484054
      ESP Fit Center   71 is at  -1.356319  0.591027  2.484054
      ESP Fit Center   72 is at  -1.112012  0.232696  2.484054
      ESP Fit Center   73 is at  -0.772940 -0.037705  2.484054
      ESP Fit Center   74 is at   0.374521  2.789756  2.078870
      ESP Fit Center   75 is at  -0.045479  2.845050  2.078870
      ESP Fit Center   76 is at  -0.465479  2.789756  2.078870
      ESP Fit Center   77 is at  -0.856856  2.627642  2.078870
      ESP Fit Center   78 is at  -1.192940  2.369756  2.078870
      ESP Fit Center   79 is at  -1.450826  2.033672  2.078870
[...]
 6690 Fit      -0.165150
 6691 Fit      -0.161232
 6692 Fit      -0.157790
 6693 Fit      -0.155089
 6694 Fit      -0.153350
 6695 Fit      -0.152288
 6696 Fit      -0.153188
 6697 Fit      -0.155598
 6698 Fit      -0.159719
 6699 Fit      -0.165732
 6700 Fit      -0.169084
 6701 Fit      -0.164402
 6702 Fit      -0.160310
 6703 Fit      -0.156893
 6704 Fit      -0.154306
 6705 Fit      -0.152716
 6706 Fit      -0.153148
 6707 Fit      -0.154182
 6708 Fit      -0.156838
 6709 Fit      -0.161175
 6710 Fit      -0.167032
 6711 Fit      -0.167873
 6712 Fit      -0.162589
 6713 Fit      -0.158444
 6714 Fit      -0.155418
 6715 Fit      -0.153608
 6716 Fit      -0.155439
 6717 Fit      -0.156537
 6718 Fit      -0.159388
 6719 Fit      -0.163842
 6720 Fit      -0.169375
 6721 Fit      -0.167740
 6722 Fit      -0.162202
 6723 Fit      -0.158338
 6724 Fit      -0.156066
 6725 Fit      -0.159352
 6726 Fit      -0.160602
 6727 Fit      -0.164047
 6728 Fit      -0.169329
 6729 Fit      -0.169767
 6730 Fit      -0.163841
 6731 Fit      -0.160420
 6732 Fit      -0.165236
 6733 Fit      -0.167119
 6734 Fit      -0.167471
 6735 Fit      -0.175692
 6736 Fit      -0.171281
 6737 Fit      -0.170908
 6738 Fit      -0.170787
 6739 Fit      -0.169108
 6740 Fit      -0.168482
 6741 Fit      -0.168285
 6742 Fit      -0.168054
 6743 Fit      -0.167738
 6744 Fit      -0.169815
 6745 Fit      -0.169319
 6746 Fit      -0.173325
 6747 Fit      -0.180916
 6748 Fit      -0.178029
 6749 Fit      -0.172719
 6750 Fit      -0.190250
 6751 Fit      -0.186094
 6752 Fit      -0.182420
 6753 Fit      -0.179294
 6754 Fit      -0.176703
 6755 Fit      -0.174602
 6756 Fit      -0.172049
 6757 Fit      -0.171824
 6758 Fit      -0.171879
 6759 Fit      -0.171811
 6760 Fit      -0.171157
 6761 Fit      -0.220999
 6762 Fit      -0.216842
 6763 Fit      -0.211821
 6764 Fit      -0.206544
 6765 Fit      -0.201449
 6766 Fit      -0.196711
 6767 Fit      -0.192307
 6768 Fit      -0.188204
 6769 Fit      -0.184447
 6770 Fit      -0.181116
 6771 Fit      -0.178263
 6772 Fit      -0.175910
 6773 Fit      -0.174071
 6774 Fit      -0.172777
 6775 Fit      -0.173001
 6776 Fit      -0.172508
 6777 Fit      -0.172263
 6778 Fit      -0.171983
 6779 Fit      -0.171493
 6780 Fit      -0.170995
 6781 Fit      -0.171147
 6782 Fit      -0.172692
 6783 Fit      -0.175875
 6784 Fit      -0.203635
 6785 Fit      -0.208237
 6786 Fit      -0.210815
 6787 Fit      -0.211048
 6788 Fit      -0.209272
 6789 Fit      -0.206127
 6790 Fit      -0.202238
 6791 Fit      -0.198094
 6792 Fit      -0.193993
 6793 Fit      -0.190065
 6794 Fit      -0.186374
 6795 Fit      -0.182990
 6796 Fit      -0.179997
 6797 Fit      -0.177462
 6798 Fit      -0.175435
 6799 Fit      -0.173948
 6800 Fit      -0.174240
 6801 Fit      -0.173575
 6802 Fit      -0.173237
 6803 Fit      -0.173079
 6804 Fit      -0.173190
 6805 Fit      -0.173983
 6806 Fit      -0.175934
 6807 Fit      -0.179181
 6808 Fit      -0.183461
 6809 Fit      -0.188344
 6810 Fit      -0.193317
 6811 Fit      -0.197712
 6812 Fit      -0.200763
 6813 Fit      -0.201926
 6814 Fit      -0.201191
 6815 Fit      -0.198994
 6816 Fit      -0.195910
 6817 Fit      -0.192425
 6818 Fit      -0.188863
 6819 Fit      -0.185417
 6820 Fit      -0.182233
 6821 Fit      -0.179437
 6822 Fit      -0.177136
 6823 Fit      -0.175400
 6824 Fit      -0.175734
 6825 Fit      -0.174986
 6826 Fit      -0.174815
 6827 Fit      -0.175264
 6828 Fit      -0.176649
 6829 Fit      -0.179266
 6830 Fit      -0.182991
 6831 Fit      -0.187266
 6832 Fit      -0.191261
 6833 Fit      -0.194047
 6834 Fit      -0.194961
 6835 Fit      -0.193985
 6836 Fit      -0.191632
 6837 Fit      -0.188541
 6838 Fit      -0.185226
 6839 Fit      -0.182053
 6840 Fit      -0.179298
 6841 Fit      -0.177159
 6842 Fit      -0.177486
 6843 Fit      -0.176830
 6844 Fit      -0.177364
 6845 Fit      -0.179299
 6846 Fit      -0.182569
 6847 Fit      -0.186283
 6848 Fit      -0.188981
 6849 Fit      -0.189536
 6850 Fit      -0.187952
 6851 Fit      -0.185097
 6852 Fit      -0.181945
 6853 Fit      -0.179250
 6854 Fit      -0.179547
 6855 Fit      -0.179584
 6856 Fit      -0.182239
 6857 Fit      -0.185087
 6858 Fit      -0.184781
 6859 Fit      -0.181930
 6860 Fit      -0.182024
 6861 Fit      -0.219989
 6862 Fit      -0.203649
 6863 Fit      -0.204876
 6864 Fit      -0.199420
 6865 Fit      -0.231215
 6866 Fit      -0.218045
 6867 Fit      -0.207629
 6868 Fit      -0.199054
 6869 Fit      -0.191810
 6870 Fit      -0.226136
 6871 Fit      -0.213150
 6872 Fit      -0.202837
 6873 Fit      -0.194423
 6874 Fit      -0.220819
 6875 Fit      -0.208663
 6876 Fit      -0.198822
 6877 Fit      -0.190772
 6878 Fit      -0.208309
 6879 Fit      -0.198356
 6880 Fit      -0.190150
 6881 Fit      -0.175390
 6882 Fit      -0.198340
 6883 Fit      -0.190228
 6884 Fit      -0.183535
 6885 Fit      -0.179255
 6886 Fit      -0.188201
 6887 Fit      -0.181800
 6888 Fit      -0.183674
 6889 Fit      -0.185211
 6890 Fit      -0.180144
 6891 Fit      -0.178365
 6892 Fit      -0.188160
 6893 Fit      -0.185529
 6894 Fit      -0.182129
 6895 Fit      -0.182672
 6896 Fit      -0.192440
 6897 Fit      -0.188549
 6898 Fit      -0.210469
 6899 Fit      -0.203401
 6900 Fit      -0.207447
 6901 Fit      -0.215500
 6902 Fit      -0.218980
 6903 Fit      -0.213902
 6904 Fit      -0.206339
 6905 Fit      -0.197533
 6906 Fit      -0.199570
 6907 Fit      -0.204706
 6908 Fit      -0.212610
 6909 Fit      -0.221687
 6910 Fit      -0.228208
 6911 Fit      -0.229203
 6912 Fit      -0.225161
 6913 Fit      -0.217918
 6914 Fit      -0.209760
 6915 Fit      -0.202908
 6916 Fit      -0.198670
 6917 Fit      -0.192659
 6918 Fit      -0.193971
 6919 Fit      -0.197105
 6920 Fit      -0.202150
 6921 Fit      -0.209332
 6922 Fit      -0.218722
 6923 Fit      -0.229333
 6924 Fit      -0.241389
 6925 Fit      -0.237325
 6926 Fit      -0.230904
 6927 Fit      -0.222743
 6928 Fit      -0.214095
 6929 Fit      -0.206261
 6930 Fit      -0.200009
 6931 Fit      -0.195633
 6932 Fit      -0.193194
 6933 Fit      -0.188612
 6934 Fit      -0.189592
 6935 Fit      -0.191739
 6936 Fit      -0.195065
 6937 Fit      -0.199708
 6938 Fit      -0.206005
 6939 Fit      -0.214483
 6940 Fit      -0.251218
 6941 Fit      -0.245479
 6942 Fit      -0.237835
 6943 Fit      -0.228678
 6944 Fit      -0.219224
 6945 Fit      -0.210573
 6946 Fit      -0.203283
 6947 Fit      -0.197507
 6948 Fit      -0.193222
 6949 Fit      -0.190359
 6950 Fit      -0.188846
 6951 Fit      -0.185253
 6952 Fit      -0.186109
 6953 Fit      -0.187826
 6954 Fit      -0.190370
 6955 Fit      -0.193758
 6956 Fit      -0.198140
 6957 Fit      -0.228596
 6958 Fit      -0.218141
 6959 Fit      -0.209210
 6960 Fit      -0.201909
 6961 Fit      -0.196119
 6962 Fit      -0.191679
 6963 Fit      -0.188460
 6964 Fit      -0.186364
 6965 Fit      -0.185317
 6966 Fit      -0.182467
 6967 Fit      -0.183290
 6968 Fit      -0.184812
 6969 Fit      -0.186973
 6970 Fit      -0.189724
 6971 Fit      -0.193061
 6972 Fit      -0.219464
 6973 Fit      -0.209720
 6974 Fit      -0.201950
 6975 Fit      -0.195811
 6976 Fit      -0.191027
 6977 Fit      -0.187403
 6978 Fit      -0.184813
 6979 Fit      -0.183169
 6980 Fit      -0.182407
 6981 Fit      -0.180163
 6982 Fit      -0.180968
 6983 Fit      -0.182354
 6984 Fit      -0.184253
 6985 Fit      -0.186588
 6986 Fit      -0.189262
 6987 Fit      -0.220332
 6988 Fit      -0.209983
 6989 Fit      -0.201921
 6990 Fit      -0.195590
 6991 Fit      -0.190613
 6992 Fit      -0.186745
 6993 Fit      -0.183832
 6994 Fit      -0.181778
 6995 Fit      -0.180517
 6996 Fit      -0.179995
 6997 Fit      -0.178261
 6998 Fit      -0.179081
 6999 Fit      -0.180414
 7000 Fit      -0.182199
 7001 Fit      -0.184352
 7002 Fit      -0.186739
 7003 Fit      -0.212128
 7004 Fit      -0.203281
 7005 Fit      -0.196431
 7006 Fit      -0.191052
 7007 Fit      -0.186819
 7008 Fit      -0.183535
 7009 Fit      -0.181078
 7010 Fit      -0.179371
 7011 Fit      -0.178362
 7012 Fit      -0.178006
 7013 Fit      -0.176697
 7014 Fit      -0.177572
 7015 Fit      -0.178949
 7016 Fit      -0.180771
 7017 Fit      -0.182954
 7018 Fit      -0.208560
 7019 Fit      -0.200070
 7020 Fit      -0.193554
 7021 Fit      -0.188464
 7022 Fit      -0.184473
 7023 Fit      -0.181391
 7024 Fit      -0.179102
 7025 Fit      -0.177533
 7026 Fit      -0.176637
 7027 Fit      -0.176371
 7028 Fit      -0.175420
 7029 Fit      -0.176326
 7030 Fit      -0.177720
 7031 Fit      -0.179558
 7032 Fit      -0.181783
 7033 Fit      -0.204283
 7034 Fit      -0.196562
 7035 Fit      -0.190613
 7036 Fit      -0.185954
 7037 Fit      -0.182299
 7038 Fit      -0.179482
 7039 Fit      -0.177401
 7040 Fit      -0.175994
 7041 Fit      -0.175218
 7042 Fit      -0.175038
 7043 Fit      -0.174385
 7044 Fit      -0.175317
 7045 Fit      -0.176737
 7046 Fit      -0.178622
 7047 Fit      -0.180945
 7048 Fit      -0.194243
 7049 Fit      -0.188616
 7050 Fit      -0.184202
 7051 Fit      -0.180740
 7052 Fit      -0.178075
 7053 Fit      -0.176115
 7054 Fit      -0.174802
 7055 Fit      -0.174097
 7056 Fit      -0.173968
 7057 Fit      -0.173561
 7058 Fit      -0.174505
 7059 Fit      -0.175945
 7060 Fit      -0.177877
 7061 Fit      -0.180315
 7062 Fit      -0.187423
 7063 Fit      -0.183110
 7064 Fit      -0.179724
 7065 Fit      -0.177117
 7066 Fit      -0.175202
 7067 Fit      -0.173923
 7068 Fit      -0.173243
 7069 Fit      -0.173132
 7070 Fit      -0.172925
 7071 Fit      -0.173827
 7072 Fit      -0.175203
 7073 Fit      -0.181984
 7074 Fit      -0.178786
 7075 Fit      -0.176312
 7076 Fit      -0.174489
 7077 Fit      -0.173270
 7078 Fit      -0.172621
 7079 Fit      -0.172516
 7080 Fit      -0.172475
 7081 Fit      -0.173322
 7082 Fit      -0.178782
 7083 Fit      -0.176204
 7084 Fit      -0.174284
 7085 Fit      -0.172984
 7086 Fit      -0.172270
 7087 Fit      -0.172111
 7088 Fit      -0.172232
 7089 Fit      -0.176597
 7090 Fit      -0.174493
 7091 Fit      -0.173035
 7092 Fit      -0.172200
 7093 Fit      -0.171949
 7094 Fit      -0.172436
 7095 Fit      -0.172095
 7096 Fit      -0.230242
 7097 Fit      -0.230420
 7098 Fit      -0.236605
 7099 Fit      -0.236847
 7100 Fit      -0.230938
 7101 Fit      -0.225006
 7102 Fit      -0.224738
 7103 Fit      -0.231473
 7104 Fit      -0.238742
 7105 Fit      -0.244352
 7106 Fit      -0.246611
 7107 Fit      -0.244793
 7108 Fit      -0.239704
 7109 Fit      -0.232635
 7110 Fit      -0.225672
 7111 Fit      -0.220736
 7112 Fit      -0.218779
 7113 Fit      -0.220101
 7114 Fit      -0.224616
 7115 Fit      -0.233567
 7116 Fit      -0.241413
 7117 Fit      -0.248319
 7118 Fit      -0.253863
 7119 Fit      -0.254230
 7120 Fit      -0.249671
 7121 Fit      -0.243239
 7122 Fit      -0.235557
 7123 Fit      -0.228024
 7124 Fit      -0.221766
 7125 Fit      -0.217338
 7126 Fit      -0.214900
 7127 Fit      -0.214475
 7128 Fit      -0.216126
 7129 Fit      -0.219975
 7130 Fit      -0.225987
 7131 Fit      -0.261336
 7132 Fit      -0.256011
 7133 Fit      -0.248509
 7134 Fit      -0.239999
 7135 Fit      -0.231761
 7136 Fit      -0.224602
 7137 Fit      -0.218904
 7138 Fit      -0.214757
 7139 Fit      -0.212104
 7140 Fit      -0.210862
 7141 Fit      -0.211014
 7142 Fit      -0.212652
 7143 Fit      -0.215978
 7144 Fit      -0.221216
 7145 Fit      -0.228411
 7146 Fit      -0.251303
 7147 Fit      -0.241472
 7148 Fit      -0.232528
 7149 Fit      -0.224921
 7150 Fit      -0.218818
 7151 Fit      -0.214188
 7152 Fit      -0.210901
 7153 Fit      -0.208812
 7154 Fit      -0.207821
 7155 Fit      -0.207920
 7156 Fit      -0.209207
 7157 Fit      -0.211903
 7158 Fit      -0.216334
 7159 Fit      -0.222866
 7160 Fit      -0.238640
 7161 Fit      -0.229528
 7162 Fit      -0.222087
 7163 Fit      -0.216263
 7164 Fit      -0.211880
 7165 Fit      -0.208727
 7166 Fit      -0.206625
 7167 Fit      -0.205460
 7168 Fit      -0.205204
 7169 Fit      -0.205937
 7170 Fit      -0.207853
 7171 Fit      -0.211283
 7172 Fit      -0.216706
 7173 Fit      -0.224739
 7174 Fit      -0.227241
 7175 Fit      -0.220016
 7176 Fit      -0.214436
 7177 Fit      -0.210227
 7178 Fit      -0.207135
 7179 Fit      -0.204969
 7180 Fit      -0.203606
 7181 Fit      -0.203005
 7182 Fit      -0.203219
 7183 Fit      -0.204398
 7184 Fit      -0.206818
 7185 Fit      -0.210911
 7186 Fit      -0.217326
 7187 Fit      -0.228975
 7188 Fit      -0.221040
 7189 Fit      -0.214954
 7190 Fit      -0.210333
 7191 Fit      -0.206865
 7192 Fit      -0.204312
 7193 Fit      -0.202520
 7194 Fit      -0.201413
 7195 Fit      -0.200998
 7196 Fit      -0.201371
 7197 Fit      -0.202731
 7198 Fit      -0.205409
 7199 Fit      -0.209924
 7200 Fit      -0.229219
 7201 Fit      -0.220693
 7202 Fit      -0.214277
 7203 Fit      -0.209443
 7204 Fit      -0.205802
 7205 Fit      -0.203080
 7206 Fit      -0.201107
 7207 Fit      -0.199803
 7208 Fit      -0.199179
 7209 Fit      -0.199340
 7210 Fit      -0.200500
 7211 Fit      -0.203016
 7212 Fit      -0.207462
 7213 Fit      -0.229272
 7214 Fit      -0.220370
 7215 Fit      -0.213735
 7216 Fit      -0.208736
 7217 Fit      -0.204935
 7218 Fit      -0.202040
 7219 Fit      -0.199873
 7220 Fit      -0.198356
 7221 Fit      -0.197500
 7222 Fit      -0.197410
 7223 Fit      -0.198293
 7224 Fit      -0.200495
 7225 Fit      -0.233233
 7226 Fit      -0.222891
 7227 Fit      -0.215284
 7228 Fit      -0.209580
 7229 Fit      -0.205230
 7230 Fit      -0.201875
 7231 Fit      -0.199295
 7232 Fit      -0.197384
 7233 Fit      -0.196128
 7234 Fit      -0.195607
 7235 Fit      -0.229351
 7236 Fit      -0.219646
 7237 Fit      -0.212487
 7238 Fit      -0.207078
 7239 Fit      -0.202910
 7240 Fit      -0.199664
 7241 Fit      -0.197166
 7242 Fit      -0.195345
 7243 Fit      -0.224945
 7244 Fit      -0.216161
 7245 Fit      -0.209586
 7246 Fit      -0.204542
 7247 Fit      -0.200604
 7248 Fit      -0.197518
 7249 Fit      -0.227425
 7250 Fit      -0.217478
 7251 Fit      -0.210111
 7252 Fit      -0.204510
 7253 Fit      -0.200173
 7254 Fit      -0.234292
 7255 Fit      -0.221826
 7256 Fit      -0.212797
 7257 Fit      -0.226656
 7258 Fit      -0.223104
 7259 Fit      -0.211580
 7260 Fit      -0.230291
 7261 Fit      -0.219813
 7262 Fit      -0.209532
 7263 Fit      -0.200706
 7264 Fit      -0.230020
 7265 Fit      -0.226734
 7266 Fit      -0.220103
 7267 Fit      -0.211478
 7268 Fit      -0.202793
 7269 Fit      -0.195544
 7270 Fit      -0.190476
 7271 Fit      -0.215618
 7272 Fit      -0.208900
 7273 Fit      -0.200946
 7274 Fit      -0.194588
 7275 Fit      -0.191702
 7276 Fit      -0.193446
 7277 Fit      -0.208217
 7278 Fit      -0.201125
 7279 Fit      -0.197072
 7280 Fit      -0.203845
 7281 Fit      -0.197205
 7282 Fit      -0.195179
 7283 Fit      -0.196988
 7284 Fit      -0.192794
 7285 Fit      -0.187468
 7286 Fit      -0.184841
 7287 Fit      -0.184813
 7288 Fit      -0.187510
 7289 Fit      -0.187425
 7290 Fit      -0.181452
 7291 Fit      -0.177708
 7292 Fit      -0.176040
 7293 Fit      -0.176413
 7294 Fit      -0.178919
 7295 Fit      -0.183796
 7296 Fit      -0.191722
 7297 Fit      -0.183499
 7298 Fit      -0.177305
 7299 Fit      -0.172942
 7300 Fit      -0.170271
 7301 Fit      -0.169215
 7302 Fit      -0.169754
 7303 Fit      -0.171929
 7304 Fit      -0.175835
 7305 Fit      -0.191092
 7306 Fit      -0.182640
 7307 Fit      -0.175928
 7308 Fit      -0.170818
 7309 Fit      -0.167193
 7310 Fit      -0.164965
 7311 Fit      -0.164078
 7312 Fit      -0.164503
 7313 Fit      -0.166235
 7314 Fit      -0.169277
 7315 Fit      -0.173618
 7316 Fit      -0.171716
 7317 Fit      -0.187825
 7318 Fit      -0.179617
 7319 Fit      -0.172991
 7320 Fit      -0.167851
 7321 Fit      -0.164105
 7322 Fit      -0.161675
 7323 Fit      -0.160504
 7324 Fit      -0.160545
 7325 Fit      -0.161760
 7326 Fit      -0.164103
 7327 Fit      -0.167484
 7328 Fit      -0.166784
 7329 Fit      -0.188602
 7330 Fit      -0.179981
 7331 Fit      -0.172889
 7332 Fit      -0.167264
 7333 Fit      -0.163035
 7334 Fit      -0.160131
 7335 Fit      -0.158489
 7336 Fit      -0.158052
 7337 Fit      -0.158764
 7338 Fit      -0.160550
 7339 Fit      -0.163292
 7340 Fit      -0.164046
 7341 Fit      -0.167677
 7342 Fit      -0.181466
 7343 Fit      -0.174032
 7344 Fit      -0.167999
 7345 Fit      -0.163335
 7346 Fit      -0.159991
 7347 Fit      -0.157913
 7348 Fit      -0.157043
 7349 Fit      -0.157320
 7350 Fit      -0.158665
 7351 Fit      -0.160963
 7352 Fit      -0.163197
 7353 Fit      -0.167191
 7354 Fit      -0.180981
 7355 Fit      -0.173413
 7356 Fit      -0.167295
 7357 Fit      -0.162655
 7358 Fit      -0.159470
 7359 Fit      -0.157697
 7360 Fit      -0.157274
 7361 Fit      -0.158122
 7362 Fit      -0.160138
 7363 Fit      -0.163973
 7364 Fit      -0.168540
 7365 Fit      -0.181325
 7366 Fit      -0.173769
 7367 Fit      -0.167645
 7368 Fit      -0.163106
 7369 Fit      -0.160192
 7370 Fit      -0.158884
 7371 Fit      -0.159128
 7372 Fit      -0.160847
 7373 Fit      -0.166139
 7374 Fit      -0.171574
 7375 Fit      -0.177267
 7376 Fit      -0.170514
 7377 Fit      -0.165529
 7378 Fit      -0.162563
 7379 Fit      -0.161687
 7380 Fit      -0.162885
 7381 Fit      -0.169486
 7382 Fit      -0.176252
 7383 Fit      -0.176813
 7384 Fit      -0.170289
 7385 Fit      -0.166577
 7386 Fit      -0.166260
 7387 Fit      -0.173832
 7388 Fit      -0.177372
 7389 Fit      -0.172018
 7390 Fit      -0.246651
 7391 Fit      -0.247226
 7392 Fit      -0.243765
 7393 Fit      -0.241788
 7394 Fit      -0.238741
 -----------------------------------------------------------------
 Leave Link  602 at Wed Jul  9 21:35:58 2014, MaxMem=   33554432 cpu:       3.7

 Test job not archived.
 1\1\GINC-NID03935\FOpt\RHF\6-31G(d)\C7H13O10P1(2-)\EBRUNK\09-Jul-2014\
 0\\#HF/6-31G* SCF=tight Test Pop=MK iop(6/33=2) iop(6/42=6) opt\\remar
 k line goes here\\-2,1\H,169.7174115593,21.7882553463,-283.3582578555\
 C,168.7154285787,22.2087663861,-283.2489114054\C,167.9767300411,21.573
 1912178,-284.4549331507\C,166.4717524878,21.8478304697,-284.6311131426
 \O,166.0330476117,23.1032196542,-284.2294504282\P,166.2194315899,24.44
 34869145,-285.3058188053\O,165.8587433184,25.5865178482,-284.399793238
 \C,168.2898471543,21.8207823587,-281.8121608285\C,167.1842863795,22.64
 18667851,-281.1249380495\O,168.8122089607,23.5943734122,-283.271795298
 6\O,167.7168022377,24.3510612087,-285.6001185697\O,165.3283599771,24.1
 398497245,-286.4555871068\O,167.9404676365,20.4512527594,-281.71275691
 27\H,169.1699843816,21.9511030377,-281.1957813249\H,168.4755943881,23.
 9710404469,-284.1037928412\O,168.6947832632,21.8818807636,-285.6198616
 634\H,168.0788158593,20.4978042541,-284.3289582391\H,166.2271379793,21
 .6711514184,-285.6734368668\H,165.9193549169,21.1142819559,-284.042330
 5841\H,167.0230730552,20.3977792252,-281.9521435304\H,168.4438485833,2
 2.7889991993,-285.8549204651\H,167.1480890826,22.2470464204,-280.11292
 54879\C,167.5232087318,24.1269926257,-280.9244640152\O,165.9183976642,
 22.389919145,-281.656873414\H,165.8496594759,22.783453326,-282.5367267
 651\C,166.5443758262,25.2089289968,-281.3950381124\O,168.4717122471,24
 .3971151035,-280.2443313399\O,167.147026844,26.2262093845,-282.1118724
 571\H,165.7327420078,24.7838431159,-281.9607128229\H,166.1270648793,25
 .610346285,-280.4671339665\H,166.8502252817,26.102318211,-283.02989631
 26\\Version=AM64L-G09RevC.01\State=1-A\HF=-1362.0205471\RMSD=4.312e-09
 \RMSF=1.337e-05\Dipole=0.3927744,-3.0312271,2.9869242\Quadrupole=9.642
 4416,3.7923046,-13.4347461,7.8372202,-14.7927165,4.054464\PG=C01 [X(C7
 H13O10P1)]\\@


 GOORD'S AXIOM:  A MEETING IS AN EVENT AT WHICH
 THE MINUTES ARE KEPT AND THE HOURS ARE LOST.
 Job cpu time:  0 days  5 hours 43 minutes 58.4 seconds.
 File lengths (MBytes):  RWF=     61 Int=      0 D2E=      0 Chk=      7 Scr=      1
 Normal termination of Gaussian 09 at Wed Jul  9 21:35:59 2014.
