 Entering Gaussian System, Link 0=g09
 Input=S7P_ideal.gau
 Output=S7P_ideal.log
 Initial command:
 /usr/common/software/g09/d1/g09/l1.exe "/global/cscratch1/sd/nmih/Gau-57051.inp" -scrdir="/global/cscratch1/sd/nmih/"
 Entering Link 1 = /usr/common/software/g09/d1/g09/l1.exe PID=     57052.
  
 Copyright (c) 1988,1990,1992,1993,1995,1998,2003,2009,2013,
            Gaussian, Inc.  All Rights Reserved.
  
 This is part of the Gaussian(R) 09 program.  It is based on
 the Gaussian(R) 03 system (copyright 2003, Gaussian, Inc.),
 the Gaussian(R) 98 system (copyright 1998, Gaussian, Inc.),
 the Gaussian(R) 94 system (copyright 1995, Gaussian, Inc.),
 the Gaussian 92(TM) system (copyright 1992, Gaussian, Inc.),
 the Gaussian 90(TM) system (copyright 1990, Gaussian, Inc.),
 the Gaussian 88(TM) system (copyright 1988, Gaussian, Inc.),
 the Gaussian 86(TM) system (copyright 1986, Carnegie Mellon
 University), and the Gaussian 82(TM) system (copyright 1983,
 Carnegie Mellon University). Gaussian is a federally registered
 trademark of Gaussian, Inc.
  
 This software contains proprietary and confidential information,
 including trade secrets, belonging to Gaussian, Inc.
  
 This software is provided under written license and may be
 used, copied, transmitted, or stored only in accord with that
 written license.
  
 The following legend is applicable only to US Government
 contracts under FAR:
  
                    RESTRICTED RIGHTS LEGEND
  
 Use, reproduction and disclosure by the US Government is
 subject to restrictions as set forth in subparagraphs (a)
 and (c) of the Commercial Computer Software - Restricted
 Rights clause in FAR 52.227-19.
  
 Gaussian, Inc.
 340 Quinnipiac St., Bldg. 40, Wallingford CT 06492
  
  
 ---------------------------------------------------------------
 Warning -- This program may not be used in any manner that
 competes with the business of Gaussian, Inc. or will provide
 assistance to any competitor of Gaussian, Inc.  The licensee
 of this program is prohibited from giving any competitor of
 Gaussian, Inc. access to this program.  By using this program,
 the user acknowledges that Gaussian, Inc. is engaged in the
 business of creating and licensing software in the field of
 computational chemistry and represents and warrants to the
 licensee that it is not a competitor of Gaussian, Inc. and that
 it will not use this program in any manner prohibited above.
 ---------------------------------------------------------------
  

 Cite this work as:
 Gaussian 09, Revision D.01,
 M. J. Frisch, G. W. Trucks, H. B. Schlegel, G. E. Scuseria, 
 M. A. Robb, J. R. Cheeseman, G. Scalmani, V. Barone, B. Mennucci, 
 G. A. Petersson, H. Nakatsuji, M. Caricato, X. Li, H. P. Hratchian, 
 A. F. Izmaylov, J. Bloino, G. Zheng, J. L. Sonnenberg, M. Hada, 
 M. Ehara, K. Toyota, R. Fukuda, J. Hasegawa, M. Ishida, T. Nakajima, 
 Y. Honda, O. Kitao, H. Nakai, T. Vreven, J. A. Montgomery, Jr., 
 J. E. Peralta, F. Ogliaro, M. Bearpark, J. J. Heyd, E. Brothers, 
 K. N. Kudin, V. N. Staroverov, T. Keith, R. Kobayashi, J. Normand, 
 K. Raghavachari, A. Rendell, J. C. Burant, S. S. Iyengar, J. Tomasi, 
 M. Cossi, N. Rega, J. M. Millam, M. Klene, J. E. Knox, J. B. Cross, 
 V. Bakken, C. Adamo, J. Jaramillo, R. Gomperts, R. E. Stratmann, 
 O. Yazyev, A. J. Austin, R. Cammi, C. Pomelli, J. W. Ochterski, 
 R. L. Martin, K. Morokuma, V. G. Zakrzewski, G. A. Voth, 
 P. Salvador, J. J. Dannenberg, S. Dapprich, A. D. Daniels, 
 O. Farkas, J. B. Foresman, J. V. Ortiz, J. Cioslowski, 
 and D. J. Fox, Gaussian, Inc., Wallingford CT, 2013.
 
 ******************************************
 Gaussian 09:  ES64L-G09RevD.01 24-Apr-2013
                31-May-2016 
 ******************************************
 %chk=S7P_linear
 ----------------------------------------------
 #HF/6-31G* Test Pop=MK iop(6/33=2) iop(6/42=6)
 ----------------------------------------------
 1/38=1/1;
 2/12=2,17=6,18=5,40=1/2;
 3/5=1,6=6,7=1,11=9,16=1,25=1,30=1/1,2,3;
 4//1;
 5/5=2,38=5/2;
 6/7=2,8=2,9=2,10=2,15=8,20=1,28=1,33=2,42=6/1,2;
 99/5=1,9=1/99;
 -------------
 S7P_ideal.pdb
 -------------
 Symbolic Z-matrix:
 Charge = -2 Multiplicity = 1
 O                    -4.858    -0.437     1.333 
 P                    -4.486     0.077    -0.146 
 O                    -4.707    -1.016    -1.119 
 O                    -5.419     1.332    -0.529 
 O                    -2.941     0.526    -0.186 
 C                    -1.86     -0.389     0.006 
 C                    -0.531     0.363    -0.093 
 O                    -0.431     1.297     0.984 
 C                     0.627    -0.634    -0.013 
 O                     0.527    -1.568    -1.09 
 C                     1.955     0.119    -0.112 
 O                     2.056     1.053     0.965 
 C                     3.113    -0.878    -0.032 
 O                     2.988    -1.659     1.158 
 C                     4.42     -0.129    -0.006 
 O                     5.038    -0.029     1.027 
 C                     4.957     0.495    -1.269 
 O                     6.199     1.144    -0.989 
 H                    -1.944    -0.85      0.99 
 H                    -1.898    -1.162    -0.762 
 H                    -0.486     0.897    -1.043 
 H                    -0.464     0.891     1.861 
 H                     0.582    -1.168     0.936 
 H                     0.56     -1.161    -1.967 
 H                     2.001     0.653    -1.061 
 H                     2.022     0.646     1.842 
 H                     3.088    -1.535    -0.902 
 H                     3.003    -1.139     1.973 
 H                     5.112    -0.279    -2.019 
 H                     4.241     1.227    -1.644 
 H                     6.602     1.569    -1.758 
 
                          Input orientation:                          
 ---------------------------------------------------------------------
 Center     Atomic      Atomic             Coordinates (Angstroms)
 Number     Number       Type             X           Y           Z
 ---------------------------------------------------------------------
      1          8           0       -4.858000   -0.437000    1.333000
      2         15           0       -4.486000    0.077000   -0.146000
      3          8           0       -4.707000   -1.016000   -1.119000
      4          8           0       -5.419000    1.332000   -0.529000
      5          8           0       -2.941000    0.526000   -0.186000
      6          6           0       -1.860000   -0.389000    0.006000
      7          6           0       -0.531000    0.363000   -0.093000
      8          8           0       -0.431000    1.297000    0.984000
      9          6           0        0.627000   -0.634000   -0.013000
     10          8           0        0.527000   -1.568000   -1.090000
     11          6           0        1.955000    0.119000   -0.112000
     12          8           0        2.056000    1.053000    0.965000
     13          6           0        3.113000   -0.878000   -0.032000
     14          8           0        2.988000   -1.659000    1.158000
     15          6           0        4.420000   -0.129000   -0.006000
     16          8           0        5.038000   -0.029000    1.027000
     17          6           0        4.957000    0.495000   -1.269000
     18          8           0        6.199000    1.144000   -0.989000
     19          1           0       -1.944000   -0.850000    0.990000
     20          1           0       -1.898000   -1.162000   -0.762000
     21          1           0       -0.486000    0.897000   -1.043000
     22          1           0       -0.464000    0.891000    1.861000
     23          1           0        0.582000   -1.168000    0.936000
     24          1           0        0.560000   -1.161000   -1.967000
     25          1           0        2.001000    0.653000   -1.061000
     26          1           0        2.022000    0.646000    1.842000
     27          1           0        3.088000   -1.535000   -0.902000
     28          1           0        3.003000   -1.139000    1.973000
     29          1           0        5.112000   -0.279000   -2.019000
     30          1           0        4.241000    1.227000   -1.644000
     31          1           0        6.602000    1.569000   -1.758000
 ---------------------------------------------------------------------
                    Distance matrix (angstroms):
                    1          2          3          4          5
     1  O    0.000000
     2  P    1.609354   0.000000
     3  O    2.523954   1.479939   0.000000
     4  O    2.628902   1.610032   2.523519   0.000000
     5  O    2.628615   1.609418   2.523293   2.628263   0.000000
     6  C    3.278908   2.671355   3.124766   3.989304   1.429213
     7  C    4.625625   3.965682   4.515893   5.002160   2.417296
     8  O    4.767272   4.382730   5.296863   5.212537   2.874620
     9  C    5.651172   5.163911   5.460835   6.378521   3.755816
    10  O    6.012347   5.359788   5.263108   6.639250   4.150792
    11  C    6.986711   6.441227   6.832607   7.484727   4.913445
    12  O    7.082296   6.707061   7.373058   7.627942   5.154856
    13  C    8.099046   7.659623   7.896392   8.827578   6.216578
    14  O    7.942520   7.782981   8.050541   9.081283   6.460155
    15  C    9.379183   8.909482   9.237298   9.960621   7.392276
    16  O    9.909133   9.596548  10.027189  10.659376   8.089736
    17  C   10.196728   9.518724   9.782562  10.435974   7.971967
    18  O   11.408264  10.771182  11.118603  11.628623   9.195995
    19  H    2.963041   2.934551   3.479886   4.375398   2.066485
    20  H    3.698141   2.934676   2.835356   4.321084   2.066148
    21  H    5.151632   4.180551   4.634888   4.978746   2.626617
    22  H    4.620563   4.568055   5.524500   5.518932   3.234032
    23  H    5.503233   5.329669   5.676236   6.663950   4.066946
    24  H    6.385053   5.505525   5.336798   6.635611   4.274919
    25  H    7.346102   6.576486   6.912756   7.469971   5.020470
    26  H    6.983292   6.828614   7.537188   7.839689   5.362700
    27  H    8.327049   7.780460   7.815272   8.984869   6.411647
    28  H    7.918190   7.877432   8.307809   9.126660   6.539468
    29  H   10.519590   9.785523   9.887666  10.757201   8.298116
    30  H    9.717161   8.929000   9.239772   9.724703   7.361949
    31  H   12.037854  11.303466  11.618263  12.085986   9.727686
                    6          7          8          9         10
     6  C    0.000000
     7  C    1.530211   0.000000
     8  O    2.416841   1.429085   0.000000
     9  C    2.499111   1.530155   2.417051   0.000000
    10  O    2.879067   2.417051   3.664351   1.429085   0.000000
    11  C    3.850482   2.498018   2.877828   1.529835   2.416948
    12  O    4.281834   2.878894   2.499013   2.417539   3.664766
    13  C    4.997129   3.850005   4.280516   2.498018   2.877996
    14  O    5.142286   4.246981   4.523027   2.827753   3.334412
    15  C    6.285391   4.976147   5.152259   3.826477   4.289665
    16  O    6.982438   5.694017   5.627618   4.572149   5.215298
    17  C    6.991321   5.614138   5.894892   4.647696   4.890083
    18  O    8.263631   6.834155   6.919034   5.929675   6.287824
    19  H    1.089878   2.154258   2.626559   2.768159   3.308741
    20  H    1.090320   2.154501   3.353697   2.686152   2.480533
    21  H    2.154547   1.090725   2.066822   2.154908   2.665446
    22  H    2.651083   2.025189   0.966982   2.650996   3.967009
    23  H    2.726739   2.154431   2.665464   1.089854   2.065841
    24  H    3.216382   2.650421   3.966390   2.024928   0.967402
    25  H    4.139031   2.726197   3.242127   2.154658   2.665775
    26  H    4.417244   3.215917   2.679025   2.650557   3.966541
    27  H    5.159504   4.165819   4.894955   2.767425   2.568103
    28  H    5.299090   4.360449   4.324878   3.137610   3.961892
    29  H    7.260958   5.997090   6.498202   4.925981   4.852503
    30  H    6.523508   5.091570   5.360864   4.380009   4.681104
    31  H    8.862895   7.423365   7.553518   6.602943   6.869688
                   11         12         13         14         15
    11  C    0.000000
    12  O    1.429156   0.000000
    13  C    1.530155   2.416613   0.000000
    14  O    2.416873   2.874164   1.428876   0.000000
    15  C    2.479711   2.815752   1.506627   2.397169   0.000000
    16  O    3.290002   3.172837   2.355400   2.622320   1.207896
    17  C    3.239140   3.703771   2.610677   3.795656   1.507619
    18  O    4.453234   4.581577   3.811526   4.772519   2.398262
    19  H    4.166001   4.429677   5.159314   5.000733   6.481694
    20  H    4.112064   4.850038   5.071851   5.273178   6.446375
    21  H    2.725899   3.243172   4.138302   4.842129   5.118289
    22  H    3.215630   2.679451   4.416757   4.348909   5.327246
    23  H    2.154020   2.665775   2.725268   2.465604   4.086212
    24  H    2.650557   3.966918   3.215917   3.988585   4.450859
    25  H    1.089896   2.065841   2.153914   3.353129   2.752473
    26  H    2.024928   0.967437   2.650421   2.591146   3.125081
    27  H    2.154879   3.353872   1.090493   2.066150   2.133981
    28  H    2.651055   2.591860   2.024906   0.966876   2.635229
    29  H    3.709677   4.474105   2.881488   4.063140   2.133901
    30  H    2.966561   3.407548   2.881311   4.213100   2.133968
    31  H    5.138718   5.324200   4.597826   5.655443   3.273199
                   16         17         18         19         20
    16  O    0.000000
    17  C    2.356428   0.000000
    18  O    2.605399   1.429043   0.000000
    19  H    7.030202   7.384843   8.613996   0.000000
    20  H    7.252055   7.070624   8.422029   1.780158   0.000000
    21  H    5.971344   5.462502   6.689780   3.051371   2.512406
    22  H    5.640387   6.272237   7.251350   2.445429   3.626471
    23  H    4.600167   5.173801   6.371943   2.546511   3.005601
    24  H    5.504357   4.750068   6.169913   3.887234   2.737479
    25  H    3.748098   2.967518   4.227229   4.693467   4.311128
    26  H    3.196264   4.279643   5.070492   4.323549   5.041436
    27  H    3.129150   2.783658   4.106450   5.419402   5.001892
    28  H    2.503646   4.122940   4.919344   5.051992   5.612536
    29  H    3.057138   1.088853   2.065768   7.692026   7.176339
    30  H    3.057284   1.090461   2.066320   7.036058   6.646245
    31  H    3.571544   2.024505   0.966641   9.297160   8.983339
                   21         22         23         24         25
    21  H    0.000000
    22  H    2.904090   0.000000
    23  H    3.053079   2.487815   0.000000
    24  H    2.486615   4.462383   2.903092   0.000000
    25  H    2.499006   3.830268   3.052476   2.487552   0.000000
    26  H    3.830965   2.498116   2.486972   4.462194   2.903084
    27  H    4.325272   5.112372   3.129372   2.768553   2.448304
    28  H    5.041297   4.019146   2.633904   4.635982   3.663390
    29  H    5.802858   6.893118   5.481172   4.636953   3.385958
    30  H    4.776466   5.876644   5.077470   4.399617   2.384736
    31  H    7.155596   7.967760   7.140673   6.633426   4.742791
                   26         27         28         29         30
    26  H    0.000000
    27  H    3.663694   0.000000
    28  H    2.041016   2.903389   0.000000
    29  H    5.031008   2.630932   4.596036   0.000000
    30  H    4.172975   3.083605   4.495919   1.779692   0.000000
    31  H    5.898163   4.766104   5.848626   2.388164   2.388364
                   31
    31  H    0.000000
 Stoichiometry    C7H13O10P(2-)
 Framework group  C1[X(C7H13O10P)]
 Deg. of freedom    87
 Full point group                 C1      NOp   1
 Largest Abelian subgroup         C1      NOp   1
 Largest concise Abelian subgroup C1      NOp   1
                         Standard orientation:                         
 ---------------------------------------------------------------------
 Center     Atomic      Atomic             Coordinates (Angstroms)
 Number     Number       Type             X           Y           Z
 ---------------------------------------------------------------------
      1          8           0        4.992058    0.605804    1.245401
      2         15           0        4.610375   -0.131759   -0.133127
      3          8           0        4.832042    0.793801   -1.266450
      4          8           0        5.535319   -1.436531   -0.318204
      5          8           0        3.063007   -0.572780   -0.095987
      6          6           0        1.987469    0.367075   -0.045601
      7          6           0        0.654318   -0.383659   -0.020054
      8          8           0        0.554935   -1.136555    1.190547
      9          6           0       -0.498357    0.620042   -0.092838
     10          8           0       -0.398975    1.372938   -1.303439
     11          6           0       -1.830513   -0.131686   -0.067138
     12          8           0       -1.930896   -0.884576    1.143468
     13          6           0       -2.983189    0.872015   -0.139921
     14          8           0       -2.848584    1.829318    0.912285
     15          6           0       -4.293720    0.143730    0.008518
     16          8           0       -4.907197    0.210503    1.046882
     17          6           0       -4.839895   -0.667655   -1.138766
     18          8           0       -6.083706   -1.257698   -0.755427
     19          1           0        2.078501    0.976259    0.853533
     20          1           0        2.025556    1.009793   -0.925522
     21          1           0        0.602090   -1.059823   -0.874312
     22          1           0        0.594179   -0.598189    1.992842
     23          1           0       -0.446134    1.296048    0.760432
     24          1           0       -0.438224    0.833584   -2.105577
     25          1           0       -1.883736   -0.807687   -0.920403
     26          1           0       -1.890647   -0.345228    1.945601
     27          1           0       -2.959166    1.384241   -1.102325
     28          1           0       -2.862199    1.443708    1.798835
     29          1           0       -4.994711   -0.020041   -2.000294
     30          1           0       -4.129332   -1.453436   -1.397134
     31          1           0       -6.492512   -1.795804   -1.446595
 ---------------------------------------------------------------------
 Rotational constants (GHZ):      1.1368625      0.1182614      0.1174360
 Standard basis: 6-31G(d) (6D, 7F)
 There are   300 symmetry adapted cartesian basis functions of A   symmetry.
 There are   300 symmetry adapted basis functions of A   symmetry.
   300 basis functions,   580 primitive gaussians,   300 cartesian basis functions
    76 alpha electrons       76 beta electrons
       nuclear repulsion energy      1570.5751497201 Hartrees.
 NAtoms=   31 NActive=   31 NUniq=   31 SFac= 1.00D+00 NAtFMM=   60 NAOKFM=F Big=F
 Integral buffers will be    131072 words long.
 Raffenetti 1 integral format.
 Two-electron integral symmetry is turned on.
 One-electron integrals computed using PRISM.
 NBasis=   300 RedAO= T EigKep=  1.61D-03  NBF=   300
 NBsUse=   300 1.00D-06 EigRej= -1.00D+00 NBFU=   300
 ExpMin= 9.98D-02 ExpMax= 1.94D+04 ExpMxC= 2.91D+03 IAcc=2 IRadAn=         4 AccDes= 0.00D+00
 Harris functional with IExCor=  205 and IRadAn=       4 diagonalized for initial guess.
 HarFok:  IExCor=  205 AccDes= 0.00D+00 IRadAn=         4 IDoV= 1 UseB2=F ITyADJ=14
 ICtDFT=  3500011 ScaDFX=  1.000000  1.000000  1.000000  1.000000
 FoFCou: FMM=F IPFlag=           0 FMFlag=      100000 FMFlg1=           0
         NFxFlg=           0 DoJE=T BraDBF=F KetDBF=T FulRan=T
         wScrn=  0.000000 ICntrl=     500 IOpCl=  0 I1Cent=   200000004 NGrid=           0
         NMat0=    1 NMatS0=      1 NMatT0=    0 NMatD0=    1 NMtDS0=    0 NMtDT0=    0
 Petite list used in FoFCou.
 Requested convergence on RMS density matrix=1.00D-08 within 128 cycles.
 Requested convergence on MAX density matrix=1.00D-06.
 Requested convergence on             energy=1.00D-06.
 No special actions if energy rises.
 Integral accuracy reduced to 1.0D-05 until final iterations.
 Initial convergence to 1.0D-05 achieved.  Increase integral accuracy.
 SCF Done:  E(RHF) =  -1361.81108890     A.U. after   16 cycles
            NFock= 16  Conv=0.59D-08     -V/T= 2.0021

 **********************************************************************

            Population analysis using the SCF density.

 **********************************************************************

 Orbital symmetries:
 BldTbl:  Degeneracy threshold= 1.00D-02
       Occupied  (A) (A) (A) (A) (A) (A) (A) (A) (A) (A) (A) (A)
                 (A) (A) (A) (A) (A) (A) (A) (A) (A) (A) (A) (A)
                 (A) (A) (A) (A) (A) (A) (A) (A) (A) (A) (A) (A)
                 (A) (A) (A) (A) (A) (A) (A) (A) (A) (A) (A) (A)
                 (A) (A) (A) (A) (A) (A) (A) (A) (A) (A) (A) (A)
                 (A) (A) (A) (A) (A) (A) (A) (A) (A) (A) (A) (A)
                 (A) (A) (A) (A)
       Virtual   (A) (A) (A) (A) (A) (A) (A) (A) (A) (A) (A) (A)
                 (A) (A) (A) (A) (A) (A) (A) (A) (A) (A) (A) (A)
                 (A) (A) (A) (A) (A) (A) (A) (A) (A) (A) (A) (A)
                 (A) (A) (A) (A) (A) (A) (A) (A) (A) (A) (A) (A)
                 (A) (A) (A) (A) (A) (A) (A) (A) (A) (A) (A) (A)
                 (A) (A) (A) (A) (A) (A) (A) (A) (A) (A) (A) (A)
                 (A) (A) (A) (A) (A) (A) (A) (A) (A) (A) (A) (A)
                 (A) (A) (A) (A) (A) (A) (A) (A) (A) (A) (A) (A)
                 (A) (A) (A) (A) (A) (A) (A) (A) (A) (A) (A) (A)
                 (A) (A) (A) (A) (A) (A) (A) (A) (A) (A) (A) (A)
                 (A) (A) (A) (A) (A) (A) (A) (A) (A) (A) (A) (A)
                 (A) (A) (A) (A) (A) (A) (A) (A) (A) (A) (A) (A)
                 (A) (A) (A) (A) (A) (A) (A) (A) (A) (A) (A) (A)
                 (A) (A) (A) (A) (A) (A) (A) (A) (A) (A) (A) (A)
                 (A) (A) (A) (A) (A) (A) (A) (A) (A) (A) (A) (A)
                 (A) (A) (A) (A) (A) (A) (A) (A) (A) (A) (A) (A)
                 (A) (A) (A) (A) (A) (A) (A) (A) (A) (A) (A) (A)
                 (A) (A) (A) (A) (A) (A) (A) (A) (A) (A) (A) (A)
                 (A) (A) (A) (A) (A) (A) (A) (A)
 The electronic state is 1-A.
 Alpha  occ. eigenvalues --  -79.63811 -20.46256 -20.44314 -20.43689 -20.42535
 Alpha  occ. eigenvalues --  -20.41072 -20.35293 -20.24255 -20.06719 -20.05557
 Alpha  occ. eigenvalues --  -20.05488 -11.21132 -11.18904 -11.16845 -11.15509
 Alpha  occ. eigenvalues --  -11.12062 -11.07942 -11.02060  -7.15778  -5.05784
 Alpha  occ. eigenvalues --   -5.05546  -5.05437  -1.28586  -1.25054  -1.23625
 Alpha  occ. eigenvalues --   -1.21483  -1.20263  -1.14955  -1.05442  -0.93253
 Alpha  occ. eigenvalues --   -0.88155  -0.87536  -0.82893  -0.79050  -0.76656
 Alpha  occ. eigenvalues --   -0.75534  -0.68574  -0.64270  -0.62012  -0.60930
 Alpha  occ. eigenvalues --   -0.57015  -0.55905  -0.54733  -0.54085  -0.52759
 Alpha  occ. eigenvalues --   -0.51398  -0.48355  -0.47001  -0.44259  -0.42049
 Alpha  occ. eigenvalues --   -0.41508  -0.41073  -0.40703  -0.40348  -0.38207
 Alpha  occ. eigenvalues --   -0.37420  -0.36277  -0.35140  -0.34137  -0.33039
 Alpha  occ. eigenvalues --   -0.32329  -0.30819  -0.28668  -0.28028  -0.23878
 Alpha  occ. eigenvalues --   -0.21948  -0.18818  -0.17980  -0.11884  -0.10641
 Alpha  occ. eigenvalues --   -0.05541  -0.02289  -0.01957   0.01082   0.02292
 Alpha  occ. eigenvalues --    0.04758
 Alpha virt. eigenvalues --    0.27777   0.30742   0.31803   0.34751   0.37016
 Alpha virt. eigenvalues --    0.39913   0.40860   0.43329   0.44266   0.45212
 Alpha virt. eigenvalues --    0.46239   0.49414   0.51469   0.53041   0.54379
 Alpha virt. eigenvalues --    0.54915   0.55718   0.57502   0.57871   0.60795
 Alpha virt. eigenvalues --    0.61235   0.63298   0.65634   0.66333   0.68526
 Alpha virt. eigenvalues --    0.69887   0.71011   0.74529   0.75281   0.77544
 Alpha virt. eigenvalues --    0.80020   0.87858   0.89603   0.89825   0.91309
 Alpha virt. eigenvalues --    0.93144   0.96600   0.98194   0.98397   0.99051
 Alpha virt. eigenvalues --    1.01369   1.02209   1.02883   1.03045   1.03413
 Alpha virt. eigenvalues --    1.04673   1.06991   1.07681   1.10156   1.11169
 Alpha virt. eigenvalues --    1.12856   1.14556   1.17245   1.19116   1.20141
 Alpha virt. eigenvalues --    1.21089   1.21812   1.22898   1.25046   1.25613
 Alpha virt. eigenvalues --    1.26291   1.27257   1.28422   1.30074   1.30925
 Alpha virt. eigenvalues --    1.31788   1.33889   1.34333   1.35338   1.35604
 Alpha virt. eigenvalues --    1.36620   1.38050   1.38509   1.39330   1.40139
 Alpha virt. eigenvalues --    1.41132   1.42454   1.43490   1.44825   1.46864
 Alpha virt. eigenvalues --    1.46984   1.47942   1.49271   1.51766   1.54272
 Alpha virt. eigenvalues --    1.55861   1.56496   1.57526   1.59539   1.60835
 Alpha virt. eigenvalues --    1.61977   1.63821   1.66274   1.68009   1.70597
 Alpha virt. eigenvalues --    1.71635   1.71850   1.74913   1.75588   1.76732
 Alpha virt. eigenvalues --    1.77602   1.77935   1.79908   1.80164   1.81887
 Alpha virt. eigenvalues --    1.82478   1.84233   1.85156   1.87363   1.89078
 Alpha virt. eigenvalues --    1.92135   1.93832   1.96003   1.96869   1.99831
 Alpha virt. eigenvalues --    2.00905   2.02025   2.02165   2.02443   2.04128
 Alpha virt. eigenvalues --    2.05832   2.08610   2.09001   2.11655   2.13707
 Alpha virt. eigenvalues --    2.14101   2.16424   2.17580   2.18834   2.21001
 Alpha virt. eigenvalues --    2.23113   2.25603   2.26474   2.27287   2.27785
 Alpha virt. eigenvalues --    2.30151   2.31999   2.35232   2.36491   2.38897
 Alpha virt. eigenvalues --    2.40026   2.41992   2.42828   2.43890   2.45019
 Alpha virt. eigenvalues --    2.46394   2.46966   2.49317   2.51469   2.54314
 Alpha virt. eigenvalues --    2.55605   2.56398   2.57724   2.58232   2.58450
 Alpha virt. eigenvalues --    2.59508   2.60103   2.61315   2.61430   2.61654
 Alpha virt. eigenvalues --    2.63600   2.63861   2.66195   2.67229   2.70354
 Alpha virt. eigenvalues --    2.71378   2.72868   2.73817   2.75183   2.76920
 Alpha virt. eigenvalues --    2.79004   2.80811   2.82979   2.84435   2.87361
 Alpha virt. eigenvalues --    2.90599   2.93508   2.94340   2.97339   2.99206
 Alpha virt. eigenvalues --    3.00882   3.01071   3.03128   3.05087   3.06805
 Alpha virt. eigenvalues --    3.09101   3.10484   3.12071   3.14523   3.18542
 Alpha virt. eigenvalues --    3.23280   3.25325   3.27959   3.28661   3.33957
 Alpha virt. eigenvalues --    3.39400   3.41501   3.45210   3.46559   3.49587
 Alpha virt. eigenvalues --    3.51460   3.52924   3.54926   3.56397   3.60814
 Alpha virt. eigenvalues --    3.64601   4.27673   4.33845   4.34148   4.37672
 Alpha virt. eigenvalues --    4.48097   4.53336   4.57542   4.57989   4.68581
 Alpha virt. eigenvalues --    4.71081   4.79283   4.80474   4.93621   5.02464
 Alpha virt. eigenvalues --    5.06392   5.07636   5.15836   5.29648
          Condensed to atoms (all electrons):
               1          2          3          4          5          6
     1  O    8.638327   0.490350  -0.052247  -0.043852  -0.029412  -0.004937
     2  P    0.490350  11.938192   0.535147   0.496434   0.150340  -0.017155
     3  O   -0.052247   0.535147   8.508217  -0.052577  -0.034848  -0.000113
     4  O   -0.043852   0.496434  -0.052577   8.606810  -0.025843   0.000402
     5  O   -0.029412   0.150340  -0.034848  -0.025843   8.531031   0.246650
     6  C   -0.004937  -0.017155  -0.000113   0.000402   0.246650   4.731041
     7  C    0.000000  -0.000024   0.000116  -0.000014  -0.046391   0.352060
     8  O    0.000000   0.000115  -0.000001   0.000000   0.002178  -0.045659
     9  C    0.000002   0.000283   0.000002   0.000000   0.002690  -0.066823
    10  O    0.000000  -0.000005   0.000000   0.000000   0.000032  -0.005045
    11  C    0.000000  -0.000008   0.000000   0.000000  -0.000049   0.004235
    12  O    0.000000   0.000000   0.000000   0.000000   0.000000  -0.000104
    13  C    0.000000   0.000000   0.000000   0.000000   0.000000  -0.000080
    14  O    0.000000   0.000000   0.000000   0.000000   0.000000  -0.000002
    15  C    0.000000   0.000000   0.000000   0.000000   0.000000   0.000001
    16  O    0.000000   0.000000   0.000000   0.000000   0.000000   0.000000
    17  C    0.000000   0.000000   0.000000   0.000000   0.000000   0.000000
    18  O    0.000000   0.000000   0.000000   0.000000   0.000000   0.000000
    19  H    0.008777   0.002432  -0.000811  -0.000045  -0.038450   0.367338
    20  H   -0.000440   0.000302   0.009197  -0.000030  -0.037052   0.386835
    21  H   -0.000001  -0.000385   0.000010  -0.000007   0.003573  -0.036132
    22  H    0.000000  -0.000019   0.000000   0.000000   0.000242  -0.002504
    23  H   -0.000001  -0.000041   0.000000   0.000000  -0.000036  -0.002460
    24  H    0.000000  -0.000007   0.000000   0.000000  -0.000034   0.000246
    25  H    0.000000  -0.000001   0.000000   0.000000  -0.000002  -0.000100
    26  H    0.000000   0.000000   0.000000   0.000000   0.000000   0.000017
    27  H    0.000000   0.000000   0.000000   0.000000   0.000000  -0.000007
    28  H    0.000000   0.000000   0.000000   0.000000   0.000000  -0.000001
    29  H    0.000000   0.000000   0.000000   0.000000   0.000000   0.000000
    30  H    0.000000   0.000000   0.000000   0.000000   0.000000   0.000000
    31  H    0.000000   0.000000   0.000000   0.000000   0.000000   0.000000
               7          8          9         10         11         12
     1  O    0.000000   0.000000   0.000002   0.000000   0.000000   0.000000
     2  P   -0.000024   0.000115   0.000283  -0.000005  -0.000008   0.000000
     3  O    0.000116  -0.000001   0.000002   0.000000   0.000000   0.000000
     4  O   -0.000014   0.000000   0.000000   0.000000   0.000000   0.000000
     5  O   -0.046391   0.002178   0.002690   0.000032  -0.000049   0.000000
     6  C    0.352060  -0.045659  -0.066823  -0.005045   0.004235  -0.000104
     7  C    4.936522   0.181748   0.321782  -0.036118  -0.064870   0.003628
     8  O    0.181748   8.444596  -0.042633   0.001645   0.004768  -0.030339
     9  C    0.321782  -0.042633   4.980283   0.160964   0.358885  -0.041501
    10  O   -0.036118   0.001645   0.160964   8.443240  -0.046597   0.001663
    11  C   -0.064870   0.004768   0.358885  -0.046597   4.951770   0.199784
    12  O    0.003628  -0.030339  -0.041501   0.001663   0.199784   8.414633
    13  C    0.005178  -0.000170  -0.066809   0.000236   0.326337  -0.048957
    14  O    0.000172  -0.000005  -0.009869   0.000310  -0.047601  -0.004008
    15  C   -0.000018   0.000005   0.004518   0.000349  -0.062527   0.002749
    16  O    0.000000   0.000000  -0.000128   0.000000  -0.001973  -0.000810
    17  C    0.000004   0.000000  -0.000273  -0.000008   0.004983  -0.000157
    18  O    0.000000   0.000000   0.000000   0.000000  -0.000032  -0.000002
    19  H   -0.045888  -0.003875  -0.003853   0.000445  -0.000163  -0.000014
    20  H   -0.055168   0.003466   0.002041   0.003022  -0.000119  -0.000001
    21  H    0.384243  -0.031554  -0.050735   0.002553  -0.009092   0.000316
    22  H   -0.025367   0.253049  -0.002810   0.000030  -0.001646   0.003205
    23  H   -0.038250   0.001015   0.386619  -0.022477  -0.047001   0.001696
    24  H   -0.001884   0.000022  -0.026856   0.255946  -0.002583   0.000030
    25  H   -0.004277   0.000351  -0.035763   0.002323   0.381768  -0.025478
    26  H   -0.001165   0.005493  -0.001756   0.000044  -0.028080   0.253618
    27  H    0.000084  -0.000003  -0.006644   0.009010  -0.037645   0.003156
    28  H   -0.000063  -0.000010  -0.000441  -0.000044  -0.003006   0.005534
    29  H    0.000000   0.000000  -0.000015  -0.000001   0.000056   0.000005
    30  H   -0.000008   0.000001   0.000194  -0.000006  -0.000699   0.000452
    31  H    0.000000   0.000000   0.000000   0.000000   0.000003   0.000000
              13         14         15         16         17         18
     1  O    0.000000   0.000000   0.000000   0.000000   0.000000   0.000000
     2  P    0.000000   0.000000   0.000000   0.000000   0.000000   0.000000
     3  O    0.000000   0.000000   0.000000   0.000000   0.000000   0.000000
     4  O    0.000000   0.000000   0.000000   0.000000   0.000000   0.000000
     5  O    0.000000   0.000000   0.000000   0.000000   0.000000   0.000000
     6  C   -0.000080  -0.000002   0.000001   0.000000   0.000000   0.000000
     7  C    0.005178   0.000172  -0.000018   0.000000   0.000004   0.000000
     8  O   -0.000170  -0.000005   0.000005   0.000000   0.000000   0.000000
     9  C   -0.066809  -0.009869   0.004518  -0.000128  -0.000273   0.000000
    10  O    0.000236   0.000310   0.000349   0.000000  -0.000008   0.000000
    11  C    0.326337  -0.047601  -0.062527  -0.001973   0.004983  -0.000032
    12  O   -0.048957  -0.004008   0.002749  -0.000810  -0.000157  -0.000002
    13  C    5.027995   0.222995   0.319488  -0.065991  -0.105346   0.001118
    14  O    0.222995   8.391809  -0.035826  -0.006537   0.002472  -0.000008
    15  C    0.319488  -0.035826   4.557469   0.574699   0.291186  -0.036590
    16  O   -0.065991  -0.006537   0.574699   8.098826  -0.077105   0.000749
    17  C   -0.105346   0.002472   0.291186  -0.077105   4.969862   0.213238
    18  O    0.001118  -0.000008  -0.036590   0.000749   0.213238   8.374689
    19  H    0.000007  -0.000003   0.000000   0.000000   0.000000   0.000000
    20  H    0.000008   0.000000   0.000000   0.000000   0.000000   0.000000
    21  H   -0.000167  -0.000006  -0.000010   0.000000  -0.000001   0.000000
    22  H    0.000031  -0.000023  -0.000002   0.000000   0.000000   0.000000
    23  H   -0.009673   0.008292  -0.000209   0.000001  -0.000012   0.000000
    24  H   -0.000998  -0.000015  -0.000087   0.000000   0.000003   0.000000
    25  H   -0.052352   0.002924  -0.004180   0.000209  -0.000991   0.000001
    26  H   -0.003291   0.005101  -0.001491   0.000648  -0.000053   0.000001
    27  H    0.386277  -0.024769  -0.047759   0.001650   0.003833  -0.000034
    28  H   -0.023431   0.253846  -0.006323   0.008017   0.000308  -0.000001
    29  H    0.004829  -0.000037  -0.043252   0.000808   0.387693  -0.037193
    30  H    0.003173  -0.000020  -0.038752   0.000662   0.392688  -0.033809
    31  H   -0.000088   0.000000   0.005095   0.000090  -0.019849   0.255937
              19         20         21         22         23         24
     1  O    0.008777  -0.000440  -0.000001   0.000000  -0.000001   0.000000
     2  P    0.002432   0.000302  -0.000385  -0.000019  -0.000041  -0.000007
     3  O   -0.000811   0.009197   0.000010   0.000000   0.000000   0.000000
     4  O   -0.000045  -0.000030  -0.000007   0.000000   0.000000   0.000000
     5  O   -0.038450  -0.037052   0.003573   0.000242  -0.000036  -0.000034
     6  C    0.367338   0.386835  -0.036132  -0.002504  -0.002460   0.000246
     7  C   -0.045888  -0.055168   0.384243  -0.025367  -0.038250  -0.001884
     8  O   -0.003875   0.003466  -0.031554   0.253049   0.001015   0.000022
     9  C   -0.003853   0.002041  -0.050735  -0.002810   0.386619  -0.026856
    10  O    0.000445   0.003022   0.002553   0.000030  -0.022477   0.255946
    11  C   -0.000163  -0.000119  -0.009092  -0.001646  -0.047001  -0.002583
    12  O   -0.000014  -0.000001   0.000316   0.003205   0.001696   0.000030
    13  C    0.000007   0.000008  -0.000167   0.000031  -0.009673  -0.000998
    14  O   -0.000003   0.000000  -0.000006  -0.000023   0.008292  -0.000015
    15  C    0.000000   0.000000  -0.000010  -0.000002  -0.000209  -0.000087
    16  O    0.000000   0.000000   0.000000   0.000000   0.000001   0.000000
    17  C    0.000000   0.000000  -0.000001   0.000000  -0.000012   0.000003
    18  O    0.000000   0.000000   0.000000   0.000000   0.000000   0.000000
    19  H    0.618581  -0.039820   0.005399   0.003412   0.004339  -0.000029
    20  H   -0.039820   0.569233  -0.001871   0.000059   0.000037   0.000508
    21  H    0.005399  -0.001871   0.564598   0.004967   0.004787   0.002931
    22  H    0.003412   0.000059   0.004967   0.346485   0.003718   0.000012
    23  H    0.004339   0.000037   0.004787   0.003718   0.518026   0.004428
    24  H   -0.000029   0.000508   0.002931   0.000012   0.004428   0.332094
    25  H   -0.000004   0.000004   0.003087   0.000038   0.004265   0.003406
    26  H   -0.000015  -0.000002   0.000019   0.000517   0.002807   0.000010
    27  H    0.000000   0.000000  -0.000008  -0.000001   0.000315   0.000222
    28  H    0.000000   0.000000   0.000000  -0.000026   0.000051   0.000001
    29  H    0.000000   0.000000   0.000000   0.000000   0.000000   0.000001
    30  H    0.000000   0.000000  -0.000004   0.000000   0.000000  -0.000005
    31  H    0.000000   0.000000   0.000000   0.000000   0.000000   0.000000
              25         26         27         28         29         30
     1  O    0.000000   0.000000   0.000000   0.000000   0.000000   0.000000
     2  P   -0.000001   0.000000   0.000000   0.000000   0.000000   0.000000
     3  O    0.000000   0.000000   0.000000   0.000000   0.000000   0.000000
     4  O    0.000000   0.000000   0.000000   0.000000   0.000000   0.000000
     5  O   -0.000002   0.000000   0.000000   0.000000   0.000000   0.000000
     6  C   -0.000100   0.000017  -0.000007  -0.000001   0.000000   0.000000
     7  C   -0.004277  -0.001165   0.000084  -0.000063   0.000000  -0.000008
     8  O    0.000351   0.005493  -0.000003  -0.000010   0.000000   0.000001
     9  C   -0.035763  -0.001756  -0.006644  -0.000441  -0.000015   0.000194
    10  O    0.002323   0.000044   0.009010  -0.000044  -0.000001  -0.000006
    11  C    0.381768  -0.028080  -0.037645  -0.003006   0.000056  -0.000699
    12  O   -0.025478   0.253618   0.003156   0.005534   0.000005   0.000452
    13  C   -0.052352  -0.003291   0.386277  -0.023431   0.004829   0.003173
    14  O    0.002924   0.005101  -0.024769   0.253846  -0.000037  -0.000020
    15  C   -0.004180  -0.001491  -0.047759  -0.006323  -0.043252  -0.038752
    16  O    0.000209   0.000648   0.001650   0.008017   0.000808   0.000662
    17  C   -0.000991  -0.000053   0.003833   0.000308   0.387693   0.392688
    18  O    0.000001   0.000001  -0.000034  -0.000001  -0.037193  -0.033809
    19  H   -0.000004  -0.000015   0.000000   0.000000   0.000000   0.000000
    20  H    0.000004  -0.000002   0.000000   0.000000   0.000000   0.000000
    21  H    0.003087   0.000019  -0.000008   0.000000   0.000000  -0.000004
    22  H    0.000038   0.000517  -0.000001  -0.000026   0.000000   0.000000
    23  H    0.004265   0.002807   0.000315   0.000051   0.000000   0.000000
    24  H    0.003406   0.000010   0.000222   0.000001   0.000001  -0.000005
    25  H    0.550070   0.005016   0.004153   0.000146   0.000050   0.000715
    26  H    0.005016   0.332882   0.000187   0.005743   0.000001  -0.000016
    27  H    0.004153   0.000187   0.498657   0.004415   0.000531   0.000053
    28  H    0.000146   0.005743   0.004415   0.311193  -0.000008  -0.000005
    29  H    0.000050   0.000001   0.000531  -0.000008   0.565652  -0.036796
    30  H    0.000715  -0.000016   0.000053  -0.000005  -0.036796   0.528995
    31  H   -0.000002   0.000000   0.000003   0.000000  -0.002671  -0.002613
              31
     1  O    0.000000
     2  P    0.000000
     3  O    0.000000
     4  O    0.000000
     5  O    0.000000
     6  C    0.000000
     7  C    0.000000
     8  O    0.000000
     9  C    0.000000
    10  O    0.000000
    11  C    0.000003
    12  O    0.000000
    13  C   -0.000088
    14  O    0.000000
    15  C    0.005095
    16  O    0.000090
    17  C   -0.019849
    18  O    0.255937
    19  H    0.000000
    20  H    0.000000
    21  H    0.000000
    22  H    0.000000
    23  H    0.000000
    24  H    0.000000
    25  H   -0.000002
    26  H    0.000000
    27  H    0.000003
    28  H    0.000000
    29  H   -0.002671
    30  H   -0.002613
    31  H    0.329904
 Mulliken charges:
               1
     1  O   -1.006566
     2  P    1.404051
     3  O   -0.912094
     4  O   -0.981279
     5  O   -0.724620
     6  C    0.092297
     7  C    0.133968
     8  O   -0.744204
     9  C    0.138648
    10  O   -0.771511
    11  C    0.121099
    12  O   -0.739097
    13  C    0.079679
    14  O   -0.759194
    15  C    0.521467
    16  O   -0.533816
    17  C   -0.062473
    18  O   -0.738064
    19  H    0.122240
    20  H    0.159792
    21  H    0.153490
    22  H    0.416632
    23  H    0.179764
    24  H    0.432637
    25  H    0.164622
    26  H    0.423766
    27  H    0.204326
    28  H    0.444102
    29  H    0.160346
    30  H    0.185802
    31  H    0.434191
 Sum of Mulliken charges =  -2.00000
 Mulliken charges with hydrogens summed into heavy atoms:
               1
     1  O   -1.006566
     2  P    1.404051
     3  O   -0.912094
     4  O   -0.981279
     5  O   -0.724620
     6  C    0.374329
     7  C    0.287459
     8  O   -0.327572
     9  C    0.318412
    10  O   -0.338874
    11  C    0.285721
    12  O   -0.315332
    13  C    0.284005
    14  O   -0.315092
    15  C    0.521467
    16  O   -0.533816
    17  C    0.283674
    18  O   -0.303873
 DipInt: DoE/N= T F RetVal/Mat= T F Init=T NMatP=  1 IDeriv=0 Min/MaxMlt=  0  4
 Entering OneElI...
 OneElI was handed    33321777 working-precision words.
 Multipole integrals L=0 to 4 MinM= 0 MaxM= 0.
 Requested accuracy = 0.1000D-12
 ShPair: Thresh= 1.00D-13 NBox=     0 BxSize= 0.00D+00 RnKept= 2.14D+01
         NSMCal=                 4950 NSMKep=                3708
 PrsmSu:  NPrtUS=   1 ThrOK=F IAlg=1 NPAlg=1 LenDen=           0.
 Prism:   IPart=     0 DynPar=F LinDyn=F Incr=          37.
 PRISM was handed    32977146 working-precision words and  3708 shell-pairs
 IPart=  0 NShTot=        3708 NBatch=          65 AvBLen=        57.0
 PrSmSu:  NxtVal=             38.
 Electronic moments (au):
       -152.00000000        -17.35749266          0.32806609         -1.24292879
      -7727.37391394       -554.52051230       -505.75470731         10.62365915
         18.41064791          5.87677914      -2667.55775105       -149.45043166
        -13.96572135        512.17182204       3447.82849524       2136.72232989
        363.93373726       -126.35606254         19.73376472        718.97608952
    -676454.84424606      -4853.97169554      -4036.82676408     -19421.02894556
     -12043.76106508       1932.87336457       -355.69467656       -542.08735650
        385.81686697     -28111.34702313     -25319.54015870      -2157.26272799
      -9164.60513775        196.84145318      -1577.93591188
 Electronic spatial extent (au):  <R**2>=           8787.6491
 DipInt: DoE/N= F T RetVal/Mat= T F Init=T NMatP=  1 IDeriv=0 Min/MaxMlt=  0  4
 Nuclear    moments (au):
        150.00000000          0.00000000          0.00000000          0.00000000
       7436.93648399        450.76179505        422.19019214          0.00000000
          0.00000000          0.00000000       1005.08478300        136.37627429
         34.11967962       -626.45950079      -3420.94069849      -2283.78452109
       -517.23768671        112.88384171        -27.80128206       -755.98399575
     630254.11274471       2948.77978391       2670.43979095      20924.91509225
      14055.94812131      -1552.45538465        409.50383274        556.90117114
       -348.90419989      22671.47303579      20232.20721870       1595.48900454
       9356.96776224          0.75034360       1537.91134472
 Total      moments (au):
         -2.00000000        -17.35749266          0.32806609         -1.24292879
       -290.43742995       -103.75871725        -83.56451517         10.62365915
         18.41064791          5.87677914      -1662.47296805        -13.07415737
         20.15395827       -114.28767874         26.88779674       -147.06219120
       -153.30394945        -13.47222083         -8.06751734        -37.00790623
     -46200.73150135      -1905.19191164      -1366.38697313       1503.88614669
       2012.18705624        380.41797991         53.80915618         14.81381465
         36.91266708      -5439.87398735      -5087.33294000       -561.77372345
        192.36262448        197.59179679        -40.02456716
 Traceless Quadrup. (au):
       -131.18387583         55.49483687         75.68903896         10.62365915
         18.41064791          5.87677914
 Charge=             -2.0000 electrons
 Dipole moment (field-independent basis, Debye):
    X=            -44.1183    Y=              0.8339    Z=             -3.1592  Tot=             44.2392
 Quadrupole moment (field-independent basis, Debye-Ang):
   XX=           -390.6483   YY=           -139.5590   ZZ=           -112.3971
   XY=             14.2892   XZ=             24.7630   YZ=              7.9045
 Traceless Quadrupole moment (field-independent basis, Debye-Ang):
   XX=           -176.4468   YY=             74.6425   ZZ=            101.8043
   XY=             14.2892   XZ=             24.7630   YZ=              7.9045
 Octapole moment (field-independent basis, Debye-Ang**2):
  XXX=          -1183.2841  YYY=             -9.3057  ZZZ=             14.3448  XYY=            -81.3456
  XXY=             19.1377  XXZ=           -104.6732  XZZ=           -109.1158  YZZ=             -9.5890
  YYZ=             -5.7421  XYZ=            -26.3408
 Hexadecapole moment (field-independent basis, Debye-Ang**3):
 XXXX=         -17401.4097 YYYY=           -717.5866 ZZZZ=           -514.6468 XXXY=            566.4356
 XXXZ=            757.8861 YYYX=            143.2836 YYYZ=             20.2671 ZZZX=              5.5796
 ZZZY=             13.9031 XXYY=          -2048.9173 XXZZ=          -1916.1334 YYZZ=           -211.5909
 XXYZ=             72.4530 YYXZ=             74.4225 ZZXY=            -15.0752
 N-N= 1.570575149720D+03 E-N=-6.402191113378D+03  KE= 1.358944998184D+03
 Entering OneElI...
 OneElI was handed    33365852 working-precision words.
 Calculate electrostatic properties
    NBasis =   300  MinDer = 0  MaxDer = 0
    NGrid  =    31  NMatD  =   1
 Requested accuracy = 0.1000D-12
 PrtBox:  NBox=     1 Levels=  1 BoxLen=   38.65 SMaxX=       22.73
          Shift=           12.269069            3.393578            3.978963
 Box      1 Number                   0 centers from      1 to     99:
 ShPair: Thresh= 1.00D-13 NBox=     1 BxSize= 3.86D+01 RnKept= 1.85D+01
         NSMCal=                 4950 NSMKep=                3317
 PrsmSu:  NPrtUS=   1 ThrOK=F IAlg=1 NPAlg=1 LenDen=           0.
 Prism:   IPart=     0 DynPar=F LinDyn=F Incr=         512.
 PRISM was handed    33052571 working-precision words and  3317 shell-pairs
 IPart=  0 NShTot=      102827 NBatch=        3317 AvBLen=        31.0
 PrSmSu:  NxtVal=            513.
 --------------------------------------------------------
       Center         ----      EFG at Nuclei      ----
                      3XX-RR        3YY-RR        3ZZ-RR
 --------------------------------------------------------
     1   Atom        0.258033      0.258642     -0.516675
     2   Atom       -0.745205      0.308261      0.436944
     3   Atom        0.203030      0.000679     -0.203709
     4   Atom       -0.448499     -0.300454      0.748954
     5   Atom       -1.394568     -0.085367      1.479935
     6   Atom       -0.172648     -0.040015      0.212663
     7   Atom        0.220909      0.008399     -0.229308
     8   Atom        2.032254     -0.029567     -2.002686
     9   Atom        0.174059      0.063489     -0.237549
    10   Atom        1.841843      0.052008     -1.893851
    11   Atom        0.180623      0.038524     -0.219147
    12   Atom        1.996012     -0.034762     -1.961249
    13   Atom        0.145382     -0.033358     -0.112023
    14   Atom        1.887711     -0.061362     -1.826348
    15   Atom        0.120710     -0.276553      0.155843
    16   Atom        0.548253     -0.176925     -0.371328
    17   Atom       -0.226745      0.085404      0.141341
    18   Atom       -0.750040      0.644117      0.105923
    19   Atom        0.144032      0.010328     -0.154360
    20   Atom        0.146010     -0.008262     -0.137748
    21   Atom        0.154568     -0.024497     -0.130071
    22   Atom        0.261116     -0.009918     -0.251198
    23   Atom        0.152670     -0.022085     -0.130585
    24   Atom        0.255670     -0.008605     -0.247065
    25   Atom        0.147818     -0.021705     -0.126113
    26   Atom        0.258186     -0.012570     -0.245616
    27   Atom        0.153524      0.044649     -0.198173
    28   Atom        0.260070      0.088723     -0.348793
    29   Atom        0.136617     -0.005850     -0.130767
    30   Atom       -0.048578     -0.080871      0.129449
    31   Atom        0.102320      0.035065     -0.137385
 --------------------------------------------------------
                        XY            XZ            YZ
 --------------------------------------------------------
     1   Atom       -0.323107     -0.524295     -0.779065
     2   Atom       -0.313993     -0.004491     -0.158780
     3   Atom       -0.236561      0.267952      0.618840
     4   Atom        0.938674      0.195288     -0.222642
     5   Atom        1.011046      0.082339     -0.122055
     6   Atom        0.154612     -0.002488     -0.043230
     7   Atom        0.088874      0.022275      0.226726
     8   Atom       -0.123181      0.036376     -0.078341
     9   Atom       -0.122165      0.037118      0.255742
    10   Atom       -0.212120      0.062264     -0.079211
    11   Atom        0.060394      0.010214      0.219309
    12   Atom       -0.207369      0.088345     -0.042086
    13   Atom       -0.091559     -0.050135     -0.271053
    14   Atom       -0.207254     -0.227373     -0.376487
    15   Atom        0.400094     -0.160512      0.233787
    16   Atom        1.488139      0.542726      0.830211
    17   Atom       -0.198764      0.113654      0.069739
    18   Atom       -1.661690     -0.019353     -0.801397
    19   Atom       -0.011969     -0.014170     -0.210847
    20   Atom       -0.004424      0.003313      0.209802
    21   Atom       -0.015487     -0.027736     -0.210424
    22   Atom       -0.015669     -0.018109     -0.311660
    23   Atom       -0.018716     -0.012179     -0.205807
    24   Atom       -0.022873     -0.022822     -0.309450
    25   Atom       -0.015505     -0.018097     -0.212154
    26   Atom       -0.020286     -0.024913     -0.310219
    27   Atom       -0.005801      0.001826      0.175284
    28   Atom       -0.001785      0.004776      0.246275
    29   Atom        0.026939     -0.052990      0.213740
    30   Atom        0.198993      0.071084     -0.082614
    31   Atom       -0.175743     -0.190885     -0.282560
 --------------------------------------------------------


 ---------------------------------------------------------------------------------
              Nuclear Quadrupole Coupling Constant in Principal Axis System
 ---------------------------------------------------------------------------------

       Atom             a.u.   MegaHertz   Gauss  10(-4) cm-1        Axes


 ---------------------------------------------------------------------------------

 No NMR shielding tensors so no spin-rotation constants.
 Leave Link  601 at Tue May 31 17:20:47 2016, MaxMem=    33554432 cpu:         0.2
 FitSet:  NAtFit=    31 NAtPot=    31 NAtFrz=     0 MDM=    35 TotChg=  -2.00000
 Merz-Kollman atomic radii used.
 Atom Element Radius
    1     8    1.40
    2    15    1.80
    3     8    1.40
    4     8    1.40
    5     8    1.40
    6     6    1.50
    7     6    1.50
    8     8    1.40
    9     6    1.50
   10     8    1.40
   11     6    1.50
   12     8    1.40
   13     6    1.50
   14     8    1.40
   15     6    1.50
   16     8    1.40
   17     6    1.50
   18     8    1.40
   19     1    1.20
   20     1    1.20
   21     1    1.20
   22     1    1.20
   23     1    1.20
   24     1    1.20
   25     1    1.20
   26     1    1.20
   27     1    1.20
   28     1    1.20
   29     1    1.20
   30     1    1.20
   31     1    1.20
 Generate VDW surfaces: Layer= 4 Dens= 6 Start= 1.400 Inc= 0.200

 **********************************************************************

            Electrostatic Properties Using The SCF Density

 **********************************************************************

       Atomic Center    1 is at   4.992058  0.605804  1.245401
       Atomic Center    2 is at   4.610375 -0.131759 -0.133127
       Atomic Center    3 is at   4.832042  0.793801 -1.266450
       Atomic Center    4 is at   5.535319 -1.436531 -0.318204
       Atomic Center    5 is at   3.063007 -0.572780 -0.095987
       Atomic Center    6 is at   1.987469  0.367075 -0.045601
       Atomic Center    7 is at   0.654318 -0.383659 -0.020054
       Atomic Center    8 is at   0.554935 -1.136555  1.190547
       Atomic Center    9 is at  -0.498357  0.620042 -0.092838
       Atomic Center   10 is at  -0.398975  1.372938 -1.303439
       Atomic Center   11 is at  -1.830513 -0.131686 -0.067138
       Atomic Center   12 is at  -1.930896 -0.884576  1.143468
       Atomic Center   13 is at  -2.983189  0.872015 -0.139921
       Atomic Center   14 is at  -2.848584  1.829318  0.912285
       Atomic Center   15 is at  -4.293720  0.143730  0.008518
       Atomic Center   16 is at  -4.907197  0.210503  1.046882
       Atomic Center   17 is at  -4.839895 -0.667655 -1.138766
       Atomic Center   18 is at  -6.083706 -1.257698 -0.755427
       Atomic Center   19 is at   2.078501  0.976259  0.853533
       Atomic Center   20 is at   2.025556  1.009793 -0.925522
       Atomic Center   21 is at   0.602090 -1.059823 -0.874312
       Atomic Center   22 is at   0.594179 -0.598189  1.992842
       Atomic Center   23 is at  -0.446134  1.296048  0.760432
       Atomic Center   24 is at  -0.438224  0.833584 -2.105577
       Atomic Center   25 is at  -1.883736 -0.807687 -0.920403
       Atomic Center   26 is at  -1.890647 -0.345228  1.945601
       Atomic Center   27 is at  -2.959166  1.384241 -1.102325
       Atomic Center   28 is at  -2.862199  1.443708  1.798835
       Atomic Center   29 is at  -4.994711 -0.020041 -2.000294
       Atomic Center   30 is at  -4.129332 -1.453436 -1.397134
       Atomic Center   31 is at  -6.492512 -1.795804 -1.446595
      ESP Fit Center   32 is at   4.992058  0.605804  3.205401
      ESP Fit Center   33 is at   5.399565  0.605804  3.162571
      ESP Fit Center   34 is at   5.195812  0.958715  3.162571
      ESP Fit Center   35 is at   4.788305  0.958715  3.162571
      ESP Fit Center   36 is at   4.584551  0.605804  3.162571
      ESP Fit Center   37 is at   4.788305  0.252893  3.162571
      ESP Fit Center   38 is at   5.195812  0.252893  3.162571
      ESP Fit Center   39 is at   5.789262  0.605804  3.035951
      ESP Fit Center   40 is at   5.682457  1.004406  3.035951
      ESP Fit Center   41 is at   5.390660  1.296203  3.035951
      ESP Fit Center   42 is at   4.992058  1.403008  3.035951
      ESP Fit Center   43 is at   4.593456  1.296203  3.035951
      ESP Fit Center   44 is at   4.301659  1.004406  3.035951
      ESP Fit Center   45 is at   4.194854  0.605804  3.035951
      ESP Fit Center   46 is at   4.301659  0.207202  3.035951
      ESP Fit Center   47 is at   4.593456 -0.084595  3.035951
      ESP Fit Center   48 is at   4.992058 -0.191400  3.035951
      ESP Fit Center   49 is at   5.390660 -0.084595  3.035951
      ESP Fit Center   50 is at   5.682457  0.207202  3.035951
      ESP Fit Center   51 is at   6.144117  0.605804  2.831075
      ESP Fit Center   52 is at   6.066321  1.021976  2.831075
      ESP Fit Center   53 is at   5.843440  1.381941  2.831075
      ESP Fit Center   54 is at   5.505575  1.637085  2.831075
      ESP Fit Center   55 is at   5.098357  1.752949  2.831075
      ESP Fit Center   56 is at   4.676782  1.713884  2.831075
      ESP Fit Center   57 is at   4.297787  1.525167  2.831075
      ESP Fit Center   58 is at   4.012558  1.212285  2.831075
      ESP Fit Center   59 is at   3.859615  0.817494  2.831075
      ESP Fit Center   60 is at   3.859615  0.394114  2.831075
      ESP Fit Center   61 is at   4.012558 -0.000677  2.831075
      ESP Fit Center   62 is at   4.297787 -0.313559  2.831075
      ESP Fit Center   63 is at   4.676782 -0.502276  2.831075
      ESP Fit Center   64 is at   5.098357 -0.541341  2.831075
      ESP Fit Center   65 is at   5.505575 -0.425477  2.831075
      ESP Fit Center   66 is at   5.843440 -0.170333  2.831075
      ESP Fit Center   67 is at   6.066321  0.189632  2.831075
      ESP Fit Center   68 is at   6.448622  0.605804  2.556897
      ESP Fit Center   69 is at   6.389621  1.016166  2.556897
      ESP Fit Center   70 is at   6.217398  1.393282  2.556897
      ESP Fit Center   71 is at   5.945905  1.706602  2.556897
      ESP Fit Center   72 is at   5.597137  1.930741  2.556897
      ESP Fit Center   73 is at   5.199349  2.047542  2.556897
      ESP Fit Center   74 is at   4.784767  2.047542  2.556897
      ESP Fit Center   75 is at   4.386980  1.930741  2.556897
      ESP Fit Center   76 is at   4.038212  1.706602  2.556897
      ESP Fit Center   77 is at   3.766719  1.393282  2.556897
      ESP Fit Center   78 is at   3.594495  1.016166  2.556897
      ESP Fit Center   79 is at   3.535494  0.605804  2.556897
      ESP Fit Center   80 is at   3.594495  0.195443  2.556897
      ESP Fit Center   81 is at   3.766719 -0.181674  2.556897
      ESP Fit Center   82 is at   4.038212 -0.494993  2.556897
      ESP Fit Center   83 is at   4.386980 -0.719133  2.556897
      ESP Fit Center   84 is at   4.784767 -0.835934  2.556897
      ESP Fit Center   85 is at   5.199349 -0.835934  2.556897
      ESP Fit Center   86 is at   5.597137 -0.719133  2.556897
      ESP Fit Center   87 is at   5.945905 -0.494993  2.556897
      ESP Fit Center   88 is at   6.217398 -0.181674  2.556897
      ESP Fit Center   89 is at   6.389621  0.195443  2.556897
      ESP Fit Center   90 is at   6.689468  0.605804  2.225401
      ESP Fit Center   91 is at   6.636141  1.027933  2.225401
      ESP Fit Center   92 is at   6.479510  1.423537  2.225401
      ESP Fit Center   93 is at   6.229417  1.767761  2.225401
      ESP Fit Center   94 is at   5.901576  2.038975  2.225401
      ESP Fit Center   95 is at   5.516587  2.220137  2.225401
      ESP Fit Center   96 is at   5.098639  2.299864  2.225401
      ESP Fit Center   97 is at   4.673995  2.273148  2.225401
      ESP Fit Center   98 is at   4.269336  2.141666  2.225401
      ESP Fit Center   99 is at   3.910088  1.913681  2.225401
      ESP Fit Center  100 is at   3.618825  1.603517  2.225401
      ESP Fit Center  101 is at   3.413846  1.230662  2.225401
      ESP Fit Center  102 is at   3.308033  0.818546  2.225401
      ESP Fit Center  103 is at   3.308033  0.393062  2.225401
      ESP Fit Center  104 is at   3.413846 -0.019054  2.225401
      ESP Fit Center  105 is at   3.618825 -0.391908  2.225401
      ESP Fit Center  106 is at   3.910088 -0.702073  2.225401
      ESP Fit Center  107 is at   4.673995 -1.061540  2.225401
      ESP Fit Center  108 is at   5.098639 -1.088256  2.225401
      ESP Fit Center  109 is at   5.516587 -1.008529  2.225401
      ESP Fit Center  110 is at   5.901576 -0.827366  2.225401
      ESP Fit Center  111 is at   6.229417 -0.556153  2.225401
      ESP Fit Center  112 is at   6.479510 -0.211929  2.225401
      ESP Fit Center  113 is at   6.636141  0.183675  2.225401
      ESP Fit Center  114 is at   6.856129  0.605804  1.851075
      ESP Fit Center  115 is at   6.809393  1.020599  1.851075
      ESP Fit Center  116 is at   6.671528  1.414594  1.851075
      ESP Fit Center  117 is at   6.449447  1.768033  1.851075
      ESP Fit Center  118 is at   6.154287  2.063193  1.851075
      ESP Fit Center  119 is at   5.800848  2.285274  1.851075
      ESP Fit Center  120 is at   5.406853  2.423139  1.851075
      ESP Fit Center  121 is at   4.992058  2.469875  1.851075
      ESP Fit Center  122 is at   4.577263  2.423139  1.851075
      ESP Fit Center  123 is at   4.183268  2.285274  1.851075
      ESP Fit Center  124 is at   3.829829  2.063193  1.851075
      ESP Fit Center  125 is at   3.534669  1.768033  1.851075
      ESP Fit Center  126 is at   6.154287 -0.851585  1.851075
      ESP Fit Center  127 is at   6.449447 -0.556425  1.851075
      ESP Fit Center  128 is at   6.671528 -0.202986  1.851075
      ESP Fit Center  129 is at   6.809393  0.191009  1.851075
      ESP Fit Center  130 is at   6.941321  0.605804  1.450277
      ESP Fit Center  131 is at   6.895748  1.024838  1.450277
      ESP Fit Center  132 is at   6.761161  1.424278  1.450277
      ESP Fit Center  133 is at   6.543853  1.785448  1.450277
      ESP Fit Center  134 is at   6.253984  2.091458  1.450277
      ESP Fit Center  135 is at   5.905109  2.328001  1.450277
      ESP Fit Center  136 is at   5.513541  2.484016  1.450277
      ESP Fit Center  137 is at   5.097589  2.552208  1.450277
      ESP Fit Center  138 is at   4.676702  2.529388  1.450277
      ESP Fit Center  139 is at   4.270562  2.416624  1.450277
      ESP Fit Center  140 is at   3.898157  2.219188  1.450277
      ESP Fit Center  141 is at   3.576902  1.946311  1.450277
      ESP Fit Center  142 is at   6.543853 -0.573840  1.450277
      ESP Fit Center  143 is at   6.761161 -0.212670  1.450277
      ESP Fit Center  144 is at   6.895748  0.186770  1.450277
      ESP Fit Center  145 is at   6.941321  0.605804  1.040526
      ESP Fit Center  146 is at   6.895748  1.024838  1.040526
      ESP Fit Center  147 is at   6.761161  1.424278  1.040526
      ESP Fit Center  148 is at   6.543853  1.785448  1.040526
      ESP Fit Center  149 is at   6.253984  2.091458  1.040526
      ESP Fit Center  150 is at   5.905109  2.328001  1.040526
      ESP Fit Center  151 is at   5.513541  2.484016  1.040526
      ESP Fit Center  152 is at   5.097589  2.552208  1.040526
      ESP Fit Center  153 is at   4.676702  2.529388  1.040526
      ESP Fit Center  154 is at   4.270562  2.416624  1.040526
      ESP Fit Center  155 is at   3.898157  2.219188  1.040526
      ESP Fit Center  156 is at   3.576902  1.946311  1.040526
      ESP Fit Center  157 is at   6.895748  0.186770  1.040526
      ESP Fit Center  158 is at   6.809393  1.020599  0.639728
      ESP Fit Center  159 is at   6.671528  1.414594  0.639728
      ESP Fit Center  160 is at   6.449447  1.768033  0.639728
      ESP Fit Center  161 is at   6.154287  2.063193  0.639728
      ESP Fit Center  162 is at   5.800848  2.285274  0.639728
      ESP Fit Center  163 is at   5.406853  2.423139  0.639728
      ESP Fit Center  164 is at   4.992058  2.469875  0.639728
      ESP Fit Center  165 is at   4.577263  2.423139  0.639728
      ESP Fit Center  166 is at   4.183268  2.285274  0.639728
      ESP Fit Center  167 is at   6.229417  1.767761  0.265401
      ESP Fit Center  168 is at   5.901576  2.038975  0.265401
      ESP Fit Center  169 is at   5.516587  2.220137  0.265401
      ESP Fit Center  170 is at   3.483320 -0.541974  2.083147
      ESP Fit Center  171 is at   3.691591 -0.902710  2.083147
      ESP Fit Center  172 is at   4.010682 -1.170459  2.083147
      ESP Fit Center  173 is at   4.402104 -1.312925  2.083147
      ESP Fit Center  174 is at   4.818647 -1.312925  2.083147
      ESP Fit Center  175 is at   5.210069 -1.170459  2.083147
      ESP Fit Center  176 is at   3.076976 -0.342520  1.855507
      ESP Fit Center  177 is at   3.190701 -0.748411  1.855507
      ESP Fit Center  178 is at   3.409717 -1.108567  1.855507
      ESP Fit Center  179 is at   3.717780 -1.396278  1.855507
      ESP Fit Center  180 is at   4.092043 -1.590206  1.855507
      ESP Fit Center  181 is at   4.504749 -1.675967  1.855507
      ESP Fit Center  182 is at   4.925288 -1.647201  1.855507
      ESP Fit Center  183 is at   5.322471 -1.506042  1.855507
      ESP Fit Center  184 is at   5.666842 -1.262959  1.855507
      ESP Fit Center  185 is at   3.683363 -1.737391  1.573623
      ESP Fit Center  186 is at   4.078635 -1.907895  1.573623
      ESP Fit Center  187 is at   4.502573 -1.982647  1.573623
      ESP Fit Center  188 is at   4.932323 -1.957617  1.573623
      ESP Fit Center  189 is at   6.267192 -0.963844  1.573623
      ESP Fit Center  190 is at   3.681294 -2.025821  1.245183
      ESP Fit Center  191 is at   4.081584 -2.174072  1.245183
      ESP Fit Center  192 is at   4.503523 -2.238711  1.245183
      ESP Fit Center  193 is at   6.676850 -0.556430  1.245183
      ESP Fit Center  194 is at   6.918124 -0.131759  0.879146
      ESP Fit Center  195 is at   3.581723  1.934053  0.879146
      ESP Fit Center  196 is at   3.581723 -2.197571  0.879146
      ESP Fit Center  197 is at   3.978830 -2.351411  0.879146
      ESP Fit Center  198 is at   6.878830 -0.555807  0.879146
      ESP Fit Center  199 is at   7.053264 -0.131759  0.485497
      ESP Fit Center  200 is at   7.016151  0.292444  0.485497
      ESP Fit Center  201 is at   6.905940  0.703758  0.485497
      ESP Fit Center  202 is at   4.186172  2.274017  0.485497
      ESP Fit Center  203 is at   3.774858  2.163805  0.485497
      ESP Fit Center  204 is at   3.388931  1.983845  0.485497
      ESP Fit Center  205 is at   3.774858 -2.427324  0.485497
      ESP Fit Center  206 is at   7.121768 -0.131759  0.074973
      ESP Fit Center  207 is at   7.085644  0.292668  0.074973
      ESP Fit Center  208 is at   6.978311  0.704886  0.074973
      ESP Fit Center  209 is at   6.802857  1.093035  0.074973
      ESP Fit Center  210 is at   6.564329  1.445948  0.074973
      ESP Fit Center  211 is at   6.269589  1.753474  0.074973
      ESP Fit Center  212 is at   5.927117  2.006765  0.074973
      ESP Fit Center  213 is at   5.546764  2.198535  0.074973
      ESP Fit Center  214 is at   5.139474  2.323266  0.074973
      ESP Fit Center  215 is at   4.716962  2.377371  0.074973
      ESP Fit Center  216 is at   4.291384  2.359293  0.074973
      ESP Fit Center  217 is at   3.874982  2.269551  0.074973
      ESP Fit Center  218 is at   3.479737  2.110729  0.074973
      ESP Fit Center  219 is at   3.874982 -2.533069  0.074973
      ESP Fit Center  220 is at   7.121768 -0.131759 -0.341227
      ESP Fit Center  221 is at   7.085644  0.292668 -0.341227
      ESP Fit Center  222 is at   6.978311  0.704886 -0.341227
      ESP Fit Center  223 is at   6.802857  1.093035 -0.341227
      ESP Fit Center  224 is at   6.564329  1.445948 -0.341227
      ESP Fit Center  225 is at   6.269589  1.753474 -0.341227
      ESP Fit Center  226 is at   3.874982  2.269551 -0.341227
      ESP Fit Center  227 is at   3.479737  2.110729 -0.341227
      ESP Fit Center  228 is at   3.874982 -2.533069 -0.341227
      ESP Fit Center  229 is at   7.053264 -0.131759 -0.751750
      ESP Fit Center  230 is at   7.016151  0.292444 -0.751750
      ESP Fit Center  231 is at   6.905940  0.703758 -0.751750
      ESP Fit Center  232 is at   6.725979  1.089685 -0.751750
      ESP Fit Center  233 is at   3.774858 -2.427324 -0.751750
      ESP Fit Center  234 is at   6.918124 -0.131759 -1.145399
      ESP Fit Center  235 is at   6.878830  0.292289 -1.145399
      ESP Fit Center  236 is at   3.581723 -2.197571 -1.145399
      ESP Fit Center  237 is at   3.978830 -2.351411 -1.145399
      ESP Fit Center  238 is at   6.720035 -0.131759 -1.511436
      ESP Fit Center  239 is at   3.681294 -2.025821 -1.511436
      ESP Fit Center  240 is at   4.081584 -2.174072 -1.511436
      ESP Fit Center  241 is at   6.464400 -0.131759 -1.839876
      ESP Fit Center  242 is at   3.338067 -1.480327 -1.839876
      ESP Fit Center  243 is at   3.683363 -1.737391 -1.839876
      ESP Fit Center  244 is at   4.078635 -1.907895 -1.839876
      ESP Fit Center  245 is at   6.414424 -0.559326 -1.839876
      ESP Fit Center  246 is at   3.076976  0.079002 -2.121761
      ESP Fit Center  247 is at   3.076976 -0.342520 -2.121761
      ESP Fit Center  248 is at   3.190701 -0.748411 -2.121761
      ESP Fit Center  249 is at   3.409717 -1.108567 -2.121761
      ESP Fit Center  250 is at   3.717780 -1.396278 -2.121761
      ESP Fit Center  251 is at   4.092043 -1.590206 -2.121761
      ESP Fit Center  252 is at   4.504749 -1.675967 -2.121761
      ESP Fit Center  253 is at   6.100794 -0.549355 -2.121761
      ESP Fit Center  254 is at   3.410988 -0.131759 -2.349401
      ESP Fit Center  255 is at   3.483320 -0.541974 -2.349401
      ESP Fit Center  256 is at   3.691591 -0.902710 -2.349401
      ESP Fit Center  257 is at   4.010682 -1.170459 -2.349401
      ESP Fit Center  258 is at   4.402104 -1.312925 -2.349401
      ESP Fit Center  259 is at   4.818647 -1.312925 -2.349401
      ESP Fit Center  260 is at   5.210069 -1.170459 -2.349401
      ESP Fit Center  261 is at   5.529159 -0.902710 -2.349401
      ESP Fit Center  262 is at   3.901756 -0.540880 -2.516586
      ESP Fit Center  263 is at   4.201254 -0.840378 -2.516586
      ESP Fit Center  264 is at   4.610375 -0.950002 -2.516586
      ESP Fit Center  265 is at   5.019497 -0.840378 -2.516586
      ESP Fit Center  266 is at   6.069400  1.955758 -0.286450
      ESP Fit Center  267 is at   5.741560  2.226971 -0.286450
      ESP Fit Center  268 is at   5.356570  2.408133 -0.286450
      ESP Fit Center  269 is at   4.938623  2.487861 -0.286450
      ESP Fit Center  270 is at   4.513979  2.461145 -0.286450
      ESP Fit Center  271 is at   6.511512  1.602591 -0.660777
      ESP Fit Center  272 is at   6.289431  1.956030 -0.660777
      ESP Fit Center  273 is at   5.994271  2.251190 -0.660777
      ESP Fit Center  274 is at   5.640832  2.473271 -0.660777
      ESP Fit Center  275 is at   5.246837  2.611135 -0.660777
      ESP Fit Center  276 is at   4.832042  2.657872 -0.660777
      ESP Fit Center  277 is at   4.417247  2.611135 -0.660777
      ESP Fit Center  278 is at   4.023252  2.473271 -0.660777
      ESP Fit Center  279 is at   3.669813  2.251190 -0.660777
      ESP Fit Center  280 is at   6.781305  0.793801 -1.061574
      ESP Fit Center  281 is at   6.735732  1.212835 -1.061574
      ESP Fit Center  282 is at   6.601145  1.612275 -1.061574
      ESP Fit Center  283 is at   6.383837  1.973444 -1.061574
      ESP Fit Center  284 is at   6.093968  2.279455 -1.061574
      ESP Fit Center  285 is at   5.745093  2.515998 -1.061574
      ESP Fit Center  286 is at   5.353525  2.672013 -1.061574
      ESP Fit Center  287 is at   4.937573  2.740205 -1.061574
      ESP Fit Center  288 is at   4.516686  2.717385 -1.061574
      ESP Fit Center  289 is at   4.110545  2.604621 -1.061574
      ESP Fit Center  290 is at   3.738141  2.407184 -1.061574
      ESP Fit Center  291 is at   3.416886  2.134308 -1.061574
      ESP Fit Center  292 is at   6.781305  0.793801 -1.471326
      ESP Fit Center  293 is at   6.735732  1.212835 -1.471326
      ESP Fit Center  294 is at   6.601145  1.612275 -1.471326
      ESP Fit Center  295 is at   6.383837  1.973444 -1.471326
      ESP Fit Center  296 is at   6.093968  2.279455 -1.471326
      ESP Fit Center  297 is at   5.745093  2.515998 -1.471326
      ESP Fit Center  298 is at   5.353525  2.672013 -1.471326
      ESP Fit Center  299 is at   4.937573  2.740205 -1.471326
      ESP Fit Center  300 is at   4.516686  2.717385 -1.471326
      ESP Fit Center  301 is at   4.110545  2.604621 -1.471326
      ESP Fit Center  302 is at   3.738141  2.407184 -1.471326
      ESP Fit Center  303 is at   3.416886  2.134308 -1.471326
      ESP Fit Center  304 is at   6.735732  0.374767 -1.471326
      ESP Fit Center  305 is at   6.696113  0.793801 -1.872123
      ESP Fit Center  306 is at   6.649377  1.208596 -1.872123
      ESP Fit Center  307 is at   6.511512  1.602591 -1.872123
      ESP Fit Center  308 is at   6.289431  1.956030 -1.872123
      ESP Fit Center  309 is at   5.994271  2.251190 -1.872123
      ESP Fit Center  310 is at   5.640832  2.473271 -1.872123
      ESP Fit Center  311 is at   5.246837  2.611135 -1.872123
      ESP Fit Center  312 is at   4.832042  2.657872 -1.872123
      ESP Fit Center  313 is at   4.417247  2.611135 -1.872123
      ESP Fit Center  314 is at   4.023252  2.473271 -1.872123
      ESP Fit Center  315 is at   3.669813  2.251190 -1.872123
      ESP Fit Center  316 is at   3.374653  1.956030 -1.872123
      ESP Fit Center  317 is at   6.511512 -0.014989 -1.872123
      ESP Fit Center  318 is at   6.649377  0.379006 -1.872123
      ESP Fit Center  319 is at   6.529452  0.793801 -2.246450
      ESP Fit Center  320 is at   6.476124  1.215929 -2.246450
      ESP Fit Center  321 is at   6.319493  1.611534 -2.246450
      ESP Fit Center  322 is at   6.069400  1.955758 -2.246450
      ESP Fit Center  323 is at   5.741560  2.226971 -2.246450
      ESP Fit Center  324 is at   5.356570  2.408133 -2.246450
      ESP Fit Center  325 is at   4.938623  2.487861 -2.246450
      ESP Fit Center  326 is at   4.513979  2.461145 -2.246450
      ESP Fit Center  327 is at   4.109320  2.329663 -2.246450
      ESP Fit Center  328 is at   3.750072  2.101678 -2.246450
      ESP Fit Center  329 is at   3.458809  1.791513 -2.246450
      ESP Fit Center  330 is at   3.253830  1.418659 -2.246450
      ESP Fit Center  331 is at   3.148017  1.006543 -2.246450
      ESP Fit Center  332 is at   3.148017  0.581059 -2.246450
      ESP Fit Center  333 is at   3.253830  0.168943 -2.246450
      ESP Fit Center  334 is at   6.069400 -0.368156 -2.246450
      ESP Fit Center  335 is at   6.319493 -0.023933 -2.246450
      ESP Fit Center  336 is at   6.476124  0.371672 -2.246450
      ESP Fit Center  337 is at   6.288606  0.793801 -2.577946
      ESP Fit Center  338 is at   6.229605  1.204162 -2.577946
      ESP Fit Center  339 is at   6.057381  1.581279 -2.577946
      ESP Fit Center  340 is at   5.785888  1.894598 -2.577946
      ESP Fit Center  341 is at   5.437120  2.118738 -2.577946
      ESP Fit Center  342 is at   5.039333  2.235539 -2.577946
      ESP Fit Center  343 is at   4.624751  2.235539 -2.577946
      ESP Fit Center  344 is at   4.226963  2.118738 -2.577946
      ESP Fit Center  345 is at   3.878195  1.894598 -2.577946
      ESP Fit Center  346 is at   3.606702  1.581279 -2.577946
      ESP Fit Center  347 is at   3.434479  1.204162 -2.577946
      ESP Fit Center  348 is at   3.375478  0.793801 -2.577946
      ESP Fit Center  349 is at   3.434479  0.383439 -2.577946
      ESP Fit Center  350 is at   3.606702  0.006323 -2.577946
      ESP Fit Center  351 is at   3.878195 -0.306997 -2.577946
      ESP Fit Center  352 is at   5.039333 -0.647937 -2.577946
      ESP Fit Center  353 is at   5.437120 -0.531136 -2.577946
      ESP Fit Center  354 is at   5.785888 -0.306997 -2.577946
      ESP Fit Center  355 is at   6.057381  0.006323 -2.577946
      ESP Fit Center  356 is at   6.229605  0.383439 -2.577946
      ESP Fit Center  357 is at   5.984101  0.793801 -2.852123
      ESP Fit Center  358 is at   5.906305  1.209973 -2.852123
      ESP Fit Center  359 is at   5.683424  1.569938 -2.852123
      ESP Fit Center  360 is at   5.345559  1.825082 -2.852123
      ESP Fit Center  361 is at   4.938341  1.940945 -2.852123
      ESP Fit Center  362 is at   4.516766  1.901881 -2.852123
      ESP Fit Center  363 is at   4.137771  1.713164 -2.852123
      ESP Fit Center  364 is at   3.852542  1.400282 -2.852123
      ESP Fit Center  365 is at   3.699599  1.005491 -2.852123
      ESP Fit Center  366 is at   3.699599  0.582110 -2.852123
      ESP Fit Center  367 is at   3.852542  0.187320 -2.852123
      ESP Fit Center  368 is at   4.137771 -0.125562 -2.852123
      ESP Fit Center  369 is at   4.516766 -0.314279 -2.852123
      ESP Fit Center  370 is at   4.938341 -0.353344 -2.852123
      ESP Fit Center  371 is at   5.345559 -0.237480 -2.852123
      ESP Fit Center  372 is at   5.683424  0.017664 -2.852123
      ESP Fit Center  373 is at   5.906305  0.377629 -2.852123
      ESP Fit Center  374 is at   5.629246  0.793801 -3.056999
      ESP Fit Center  375 is at   5.522441  1.192403 -3.056999
      ESP Fit Center  376 is at   5.230644  1.484200 -3.056999
      ESP Fit Center  377 is at   4.832042  1.591005 -3.056999
      ESP Fit Center  378 is at   4.433440  1.484200 -3.056999
      ESP Fit Center  379 is at   4.141643  1.192403 -3.056999
      ESP Fit Center  380 is at   4.034838  0.793801 -3.056999
      ESP Fit Center  381 is at   4.141643  0.395199 -3.056999
      ESP Fit Center  382 is at   4.433440  0.103402 -3.056999
      ESP Fit Center  383 is at   4.832042 -0.003403 -3.056999
      ESP Fit Center  384 is at   5.230644  0.103402 -3.056999
      ESP Fit Center  385 is at   5.522441  0.395199 -3.056999
      ESP Fit Center  386 is at   5.239549  0.793801 -3.183619
      ESP Fit Center  387 is at   5.035795  1.146712 -3.183619
      ESP Fit Center  388 is at   4.628288  1.146712 -3.183619
      ESP Fit Center  389 is at   4.424535  0.793801 -3.183619
      ESP Fit Center  390 is at   4.628288  0.440889 -3.183619
      ESP Fit Center  391 is at   5.035795  0.440889 -3.183619
      ESP Fit Center  392 is at   4.832042  0.793801 -3.226450
      ESP Fit Center  393 is at   5.942826 -1.436531  1.598965
      ESP Fit Center  394 is at   5.739072 -1.789442  1.598965
      ESP Fit Center  395 is at   6.332522 -1.436531  1.472345
      ESP Fit Center  396 is at   5.136717 -2.126930  1.472345
      ESP Fit Center  397 is at   5.535319 -2.233735  1.472345
      ESP Fit Center  398 is at   5.933921 -2.126930  1.472345
      ESP Fit Center  399 is at   6.225717 -1.835133  1.472345
      ESP Fit Center  400 is at   6.687378 -1.436531  1.267469
      ESP Fit Center  401 is at   6.609582 -1.020359  1.267469
      ESP Fit Center  402 is at   4.841048 -2.355894  1.267469
      ESP Fit Center  403 is at   5.220043 -2.544611  1.267469
      ESP Fit Center  404 is at   5.641617 -2.583675  1.267469
      ESP Fit Center  405 is at   6.048836 -2.467812  1.267469
      ESP Fit Center  406 is at   6.386701 -2.212668  1.267469
      ESP Fit Center  407 is at   6.609582 -1.852703  1.267469
      ESP Fit Center  408 is at   6.991882 -1.436531  0.993292
      ESP Fit Center  409 is at   6.932881 -1.026169  0.993292
      ESP Fit Center  410 is at   4.581472 -2.537328  0.993292
      ESP Fit Center  411 is at   4.930240 -2.761468  0.993292
      ESP Fit Center  412 is at   5.328028 -2.878269  0.993292
      ESP Fit Center  413 is at   5.742609 -2.878269  0.993292
      ESP Fit Center  414 is at   6.140397 -2.761468  0.993292
      ESP Fit Center  415 is at   6.489165 -2.537328  0.993292
      ESP Fit Center  416 is at   6.760658 -2.224009  0.993292
      ESP Fit Center  417 is at   6.932881 -1.846892  0.993292
      ESP Fit Center  418 is at   7.232728 -1.436531  0.661796
      ESP Fit Center  419 is at   7.179401 -1.014402  0.661796
      ESP Fit Center  420 is at   7.022770 -0.618797  0.661796
      ESP Fit Center  421 is at   4.453349 -2.744408  0.661796
      ESP Fit Center  422 is at   4.812597 -2.972393  0.661796
      ESP Fit Center  423 is at   5.217256 -3.103875  0.661796
      ESP Fit Center  424 is at   5.641900 -3.130591  0.661796
      ESP Fit Center  425 is at   6.059847 -3.050864  0.661796
      ESP Fit Center  426 is at   6.444836 -2.869701  0.661796
      ESP Fit Center  427 is at   6.772677 -2.598488  0.661796
      ESP Fit Center  428 is at   7.022770 -2.254264  0.661796
      ESP Fit Center  429 is at   7.179401 -1.858660  0.661796
      ESP Fit Center  430 is at   7.399389 -1.436531  0.287469
      ESP Fit Center  431 is at   7.352653 -1.021736  0.287469
      ESP Fit Center  432 is at   7.214788 -0.627741  0.287469
      ESP Fit Center  433 is at   4.077929 -2.598760  0.287469
      ESP Fit Center  434 is at   4.373089 -2.893920  0.287469
      ESP Fit Center  435 is at   4.726529 -3.116001  0.287469
      ESP Fit Center  436 is at   5.120524 -3.253865  0.287469
      ESP Fit Center  437 is at   5.535319 -3.300602  0.287469
[...]
 8188 Fit      -0.145032
 8189 Fit      -0.135960
 8190 Fit      -0.134421
 8191 Fit      -0.141345
 8192 Fit      -0.149540
 8193 Fit      -0.163372
 8194 Fit      -0.158552
 8195 Fit      -0.149375
 8196 Fit      -0.138919
 8197 Fit      -0.130305
 8198 Fit      -0.126034
 8199 Fit      -0.127585
 8200 Fit      -0.133908
 8201 Fit      -0.142168
 8202 Fit      -0.150431
 8203 Fit      -0.157718
 8204 Fit      -0.162682
 8205 Fit      -0.177420
 8206 Fit      -0.173630
 8207 Fit      -0.165745
 8208 Fit      -0.155287
 8209 Fit      -0.144161
 8210 Fit      -0.133827
 8211 Fit      -0.125274
 8212 Fit      -0.119518
 8213 Fit      -0.117880
 8214 Fit      -0.121141
 8215 Fit      -0.128199
 8216 Fit      -0.136668
 8217 Fit      -0.144941
 8218 Fit      -0.152694
 8219 Fit      -0.160069
 8220 Fit      -0.167003
 8221 Fit      -0.172956
 8222 Fit      -0.176874
 8223 Fit      -0.194443
 8224 Fit      -0.191202
 8225 Fit      -0.183621
 8226 Fit      -0.172828
 8227 Fit      -0.160578
 8228 Fit      -0.148355
 8229 Fit      -0.136996
 8230 Fit      -0.126833
 8231 Fit      -0.118101
 8232 Fit      -0.138537
 8233 Fit      -0.147227
 8234 Fit      -0.154871
 8235 Fit      -0.162062
 8236 Fit      -0.169197
 8237 Fit      -0.176354
 8238 Fit      -0.183269
 8239 Fit      -0.189310
 8240 Fit      -0.193459
 8241 Fit      -0.214858
 8242 Fit      -0.212111
 8243 Fit      -0.204273
 8244 Fit      -0.192370
 8245 Fit      -0.178396
 8246 Fit      -0.164188
 8247 Fit      -0.150811
 8248 Fit      -0.138603
 8249 Fit      -0.127443
 8250 Fit      -0.117035
 8251 Fit      -0.201000
 8252 Fit      -0.207906
 8253 Fit      -0.212997
 8254 Fit      -0.238837
 8255 Fit      -0.236879
 8256 Fit      -0.228895
 8257 Fit      -0.167777
 8258 Fit      -0.153738
 8259 Fit      -0.141072
 8260 Fit      -0.129380
 8261 Fit      -0.118009
 8262 Fit      -0.229461
 8263 Fit      -0.235771
 8264 Fit      -0.115326
 8265 Fit      -0.125143
 8266 Fit      -0.115998
 8267 Fit      -0.137862
 8268 Fit      -0.134021
 8269 Fit      -0.127013
 8270 Fit      -0.117604
 8271 Fit      -0.150341
 8272 Fit      -0.147543
 8273 Fit      -0.142103
 8274 Fit      -0.135831
 8275 Fit      -0.129177
 8276 Fit      -0.154983
 8277 Fit      -0.148417
 8278 Fit      -0.142258
 8279 Fit      -0.136816
 8280 Fit      -0.159990
 8281 Fit      -0.152898
 8282 Fit      -0.147037
 8283 Fit      -0.142641
 8284 Fit      -0.163910
 8285 Fit      -0.156952
 8286 Fit      -0.151662
 8287 Fit      -0.148304
 8288 Fit      -0.172790
 8289 Fit      -0.164805
 8290 Fit      -0.158669
 8291 Fit      -0.154708
 8292 Fit      -0.181711
 8293 Fit      -0.172927
 8294 Fit      -0.165964
 8295 Fit      -0.161120
 8296 Fit      -0.158775
 8297 Fit      -0.179917
 8298 Fit      -0.172524
 8299 Fit      -0.167159
 8300 Fit      -0.164136
 8301 Fit      -0.184523
 8302 Fit      -0.177285
 8303 Fit      -0.172083
 8304 Fit      -0.169236
 8305 Fit      -0.191517
 8306 Fit      -0.190671
 8307 Fit      -0.086911
 8308 Fit      -0.087363
 8309 Fit      -0.089870
 8310 Fit      -0.100537
 8311 Fit      -0.108198
 8312 Fit      -0.117029
 8313 Fit      -0.126883
 8314 Fit      -0.137698
 8315 Fit      -0.149309
 8316 Fit      -0.161213
 8317 Fit      -0.172502
 8318 Fit      -0.182017
 8319 Fit      -0.188616
 8320 Fit      -0.174662
 8321 Fit      -0.174095
 8322 Fit      -0.170591
 8323 Fit      -0.107990
 8324 Fit      -0.101130
 8325 Fit      -0.095656
 8326 Fit      -0.092125
 8327 Fit      -0.090815
 8328 Fit      -0.091765
 8329 Fit      -0.094885
 8330 Fit      -0.099996
 8331 Fit      -0.106835
 8332 Fit      -0.115112
 8333 Fit      -0.124570
 8334 Fit      -0.134932
 8335 Fit      -0.145737
 8336 Fit      -0.156198
 8337 Fit      -0.165224
 8338 Fit      -0.171659
 8339 Fit      -0.159328
 8340 Fit      -0.158977
 8341 Fit      -0.155785
 8342 Fit      -0.150684
 8343 Fit      -0.144528
 8344 Fit      -0.137865
 8345 Fit      -0.130951
 8346 Fit      -0.123882
 8347 Fit      -0.116758
 8348 Fit      -0.109834
 8349 Fit      -0.103590
 8350 Fit      -0.098661
 8351 Fit      -0.095635
 8352 Fit      -0.094873
 8353 Fit      -0.096474
 8354 Fit      -0.100338
 8355 Fit      -0.106216
 8356 Fit      -0.113766
 8357 Fit      -0.122582
 8358 Fit      -0.132139
 8359 Fit      -0.141669
 8360 Fit      -0.150114
 8361 Fit      -0.156300
 8362 Fit      -0.145927
 8363 Fit      -0.145600
 8364 Fit      -0.142251
 8365 Fit      -0.136899
 8366 Fit      -0.130464
 8367 Fit      -0.123547
 8368 Fit      -0.116553
 8369 Fit      -0.109933
 8370 Fit      -0.104338
 8371 Fit      -0.100547
 8372 Fit      -0.099208
 8373 Fit      -0.100626
 8374 Fit      -0.104726
 8375 Fit      -0.111121
 8376 Fit      -0.119172
 8377 Fit      -0.127975
 8378 Fit      -0.136299
 8379 Fit      -0.142690
 8380 Fit      -0.134485
 8381 Fit      -0.133775
 8382 Fit      -0.129245
 8383 Fit      -0.122594
 8384 Fit      -0.115372
 8385 Fit      -0.108985
 8386 Fit      -0.104936
 8387 Fit      -0.104483
 8388 Fit      -0.108015
 8389 Fit      -0.114817
 8390 Fit      -0.123170
 8391 Fit      -0.130569
 8392 Fit      -0.124866
 8393 Fit      -0.122590
 8394 Fit      -0.115501
 8395 Fit      -0.110304
 8396 Fit      -0.112040
 8397 Fit      -0.119449
 8398 Fit      -0.116876
 8399 Fit      -0.133285
 8400 Fit      -0.141130
 8401 Fit      -0.149582
 8402 Fit      -0.158791
 8403 Fit      -0.126144
 8404 Fit      -0.133861
 8405 Fit      -0.141895
 8406 Fit      -0.150310
 8407 Fit      -0.124252
 8408 Fit      -0.132005
 8409 Fit      -0.139886
 8410 Fit      -0.113972
 8411 Fit      -0.121658
 8412 Fit      -0.129218
 8413 Fit      -0.136608
 8414 Fit      -0.112512
 8415 Fit      -0.119732
 8416 Fit      -0.126653
 8417 Fit      -0.132994
 8418 Fit      -0.107968
 8419 Fit      -0.114997
 8420 Fit      -0.121483
 8421 Fit      -0.126985
 8422 Fit      -0.104162
 8423 Fit      -0.110690
 8424 Fit      -0.116370
 8425 Fit      -0.120490
 8426 Fit      -0.099235
 8427 Fit      -0.105389
 8428 Fit      -0.110339
 8429 Fit      -0.112886
 8430 Fit      -0.084569
 8431 Fit      -0.093197
 8432 Fit      -0.099229
 8433 Fit      -0.103904
 8434 Fit      -0.104773
 8435 Fit      -0.088845
 8436 Fit      -0.089140
 8437 Fit      -0.093400
 8438 Fit      -0.098024
 8439 Fit      -0.092920
 8440 Fit      -0.106503
 8441 Fit      -0.109255
 8442 Fit      -0.104444
 8443 Fit      -0.102120
 8444 Fit      -0.104934
 8445 Fit      -0.109415
 8446 Fit      -0.111625
 8447 Fit      -0.112787
 8448 Fit      -0.108101
 8449 Fit      -0.103242
 8450 Fit      -0.099295
 8451 Fit      -0.098125
 8452 Fit      -0.100527
 8453 Fit      -0.104870
 8454 Fit      -0.109280
 8455 Fit      -0.113199
 8456 Fit      -0.116347
 8457 Fit      -0.117782
 8458 Fit      -0.116473
 8459 Fit      -0.116429
 8460 Fit      -0.112036
 8461 Fit      -0.107661
 8462 Fit      -0.102937
 8463 Fit      -0.098221
 8464 Fit      -0.094698
 8465 Fit      -0.096753
 8466 Fit      -0.101637
 8467 Fit      -0.106669
 8468 Fit      -0.110908
 8469 Fit      -0.114509
 8470 Fit      -0.117891
 8471 Fit      -0.121161
 8472 Fit      -0.123919
 8473 Fit      -0.125291
 8474 Fit      -0.124324
 8475 Fit      -0.120935
 8476 Fit      -0.107588
 8477 Fit      -0.102739
 8478 Fit      -0.108171
 8479 Fit      -0.113037
 8480 Fit      -0.116555
 8481 Fit      -0.119502
 8482 Fit      -0.122487
 8483 Fit      -0.125756
 8484 Fit      -0.129206
 8485 Fit      -0.132379
 8486 Fit      -0.134405
 8487 Fit      -0.134081
 8488 Fit      -0.107837
 8489 Fit      -0.120077
 8490 Fit      -0.122903
 8491 Fit      -0.125039
 8492 Fit      -0.109051
 8493 Fit      -0.133203
 8494 Fit      -0.126862
 8495 Fit      -0.121266
 8496 Fit      -0.116190
 8497 Fit      -0.141858
 8498 Fit      -0.132679
 8499 Fit      -0.125251
 8500 Fit      -0.118987
 8501 Fit      -0.113523
 8502 Fit      -0.108607
 8503 Fit      -0.104027
 8504 Fit      -0.099562
 8505 Fit      -0.132096
 8506 Fit      -0.123678
 8507 Fit      -0.116751
 8508 Fit      -0.110849
 8509 Fit      -0.105651
 8510 Fit      -0.100897
 8511 Fit      -0.096334
 8512 Fit      -0.091653
 8513 Fit      -0.131787
 8514 Fit      -0.122883
 8515 Fit      -0.115523
 8516 Fit      -0.109283
 8517 Fit      -0.103841
 8518 Fit      -0.098928
 8519 Fit      -0.094282
 8520 Fit      -0.089590
 8521 Fit      -0.126761
 8522 Fit      -0.118436
 8523 Fit      -0.111232
 8524 Fit      -0.104987
 8525 Fit      -0.099466
 8526 Fit      -0.094403
 8527 Fit      -0.089485
 8528 Fit      -0.120670
 8529 Fit      -0.113755
 8530 Fit      -0.107128
 8531 Fit      -0.101101
 8532 Fit      -0.095624
 8533 Fit      -0.090490
 8534 Fit      -0.112877
 8535 Fit      -0.107530
 8536 Fit      -0.101570
 8537 Fit      -0.095806
 8538 Fit      -0.090399
 8539 Fit      -0.083844
 8540 Fit      -0.104973
 8541 Fit      -0.100387
 8542 Fit      -0.094540
 8543 Fit      -0.088874
 8544 Fit      -0.085201
 8545 Fit      -0.089052
 8546 Fit      -0.096536
 8547 Fit      -0.098157
 8548 Fit      -0.093435
 8549 Fit      -0.088132
 8550 Fit      -0.087114
 8551 Fit      -0.090895
 8552 Fit      -0.092293
 8553 Fit      -0.098232
 8554 Fit      -0.097759
 8555 Fit      -0.099473
 8556 Fit      -0.099997
 8557 Fit      -0.099972
 8558 Fit      -0.098363
 8559 Fit      -0.096547
 8560 Fit      -0.098404
 8561 Fit      -0.100870
 8562 Fit      -0.101941
 8563 Fit      -0.102076
 8564 Fit      -0.102139
 8565 Fit      -0.102621
 8566 Fit      -0.103156
 8567 Fit      -0.102577
 8568 Fit      -0.100089
 8569 Fit      -0.096581
 8570 Fit      -0.094471
 8571 Fit      -0.095492
 8572 Fit      -0.100023
 8573 Fit      -0.103299
 8574 Fit      -0.105069
 8575 Fit      -0.105551
 8576 Fit      -0.105303
 8577 Fit      -0.104916
 8578 Fit      -0.104869
 8579 Fit      -0.105457
 8580 Fit      -0.106670
 8581 Fit      -0.108012
 8582 Fit      -0.108495
 8583 Fit      -0.107147
 8584 Fit      -0.103733
 8585 Fit      -0.102456
 8586 Fit      -0.106757
 8587 Fit      -0.109289
 8588 Fit      -0.110278
 8589 Fit      -0.110196
 8590 Fit      -0.109557
 8591 Fit      -0.108818
 8592 Fit      -0.108353
 8593 Fit      -0.108465
 8594 Fit      -0.109382
 8595 Fit      -0.111180
 8596 Fit      -0.113610
 8597 Fit      -0.115897
 8598 Fit      -0.111512
 8599 Fit      -0.105499
 8600 Fit      -0.111052
 8601 Fit      -0.114479
 8602 Fit      -0.116073
 8603 Fit      -0.116307
 8604 Fit      -0.115691
 8605 Fit      -0.114682
 8606 Fit      -0.113654
 8607 Fit      -0.112911
 8608 Fit      -0.112718
 8609 Fit      -0.113339
 8610 Fit      -0.115030
 8611 Fit      -0.117941
 8612 Fit      -0.120203
 8613 Fit      -0.122650
 8614 Fit      -0.122185
 8615 Fit      -0.093602
 8616 Fit      -0.094210
 8617 Fit      -0.090663
 8618 Fit      -0.090259
 8619 Fit      -0.089899
 8620 Fit      -0.089804
 8621 Fit      -0.090084
 8622 Fit      -0.090788
 8623 Fit      -0.091901
 8624 Fit      -0.087988
 8625 Fit      -0.087245
 8626 Fit      -0.086607
 8627 Fit      -0.086203
 8628 Fit      -0.086073
 8629 Fit      -0.086172
 8630 Fit      -0.086346
 8631 Fit      -0.086906
 8632 Fit      -0.086139
 8633 Fit      -0.085159
 8634 Fit      -0.084203
 8635 Fit      -0.083402
 8636 Fit      -0.082789
 8637 Fit      -0.082307
 8638 Fit      -0.081781
 8639 Fit      -0.080865
 8640 Fit      -0.085597
 8641 Fit      -0.084701
 8642 Fit      -0.083585
 8643 Fit      -0.082432
 8644 Fit      -0.081365
 8645 Fit      -0.080424
 8646 Fit      -0.079559
 8647 Fit      -0.078621
 8648 Fit      -0.077333
 8649 Fit      -0.075268
 8650 Fit      -0.071894
 8651 Fit      -0.083206
 8652 Fit      -0.083816
 8653 Fit      -0.084530
 8654 Fit      -0.084934
 8655 Fit      -0.084784
 8656 Fit      -0.084096
 8657 Fit      -0.083016
 8658 Fit      -0.081734
 8659 Fit      -0.080420
 8660 Fit      -0.079174
 8661 Fit      -0.078000
 8662 Fit      -0.076797
 8663 Fit      -0.075355
 8664 Fit      -0.073374
 8665 Fit      -0.070575
 8666 Fit      -0.066983
 8667 Fit      -0.082832
 8668 Fit      -0.083272
 8669 Fit      -0.083512
 8670 Fit      -0.083321
 8671 Fit      -0.082608
 8672 Fit      -0.081477
 8673 Fit      -0.080117
 8674 Fit      -0.078699
 8675 Fit      -0.077312
 8676 Fit      -0.075935
 8677 Fit      -0.074440
 8678 Fit      -0.072648
 8679 Fit      -0.070467
 8680 Fit      -0.068147
 8681 Fit      -0.066463
 8682 Fit      -0.082264
 8683 Fit      -0.081582
 8684 Fit      -0.081894
 8685 Fit      -0.081725
 8686 Fit      -0.080998
 8687 Fit      -0.079797
 8688 Fit      -0.078331
 8689 Fit      -0.076789
 8690 Fit      -0.075240
 8691 Fit      -0.073639
 8692 Fit      -0.071943
 8693 Fit      -0.070355
 8694 Fit      -0.069482
 8695 Fit      -0.070009
 8696 Fit      -0.071985
 8697 Fit      -0.079453
 8698 Fit      -0.080817
 8699 Fit      -0.079833
 8700 Fit      -0.079993
 8701 Fit      -0.079283
 8702 Fit      -0.077895
 8703 Fit      -0.076191
 8704 Fit      -0.074454
 8705 Fit      -0.072882
 8706 Fit      -0.071936
 8707 Fit      -0.072368
 8708 Fit      -0.074293
 8709 Fit      -0.076767
 8710 Fit      -0.078756
 8711 Fit      -0.077891
 8712 Fit      -0.077623
 8713 Fit      -0.075936
 8714 Fit      -0.074269
 8715 Fit      -0.074278
 8716 Fit      -0.076278
 8717 Fit      -0.075982
 8718 Fit      -0.125354
 8719 Fit      -0.131079
 8720 Fit      -0.115343
 8721 Fit      -0.118260
 8722 Fit      -0.122946
 8723 Fit      -0.129092
 8724 Fit      -0.107587
 8725 Fit      -0.110126
 8726 Fit      -0.113930
 8727 Fit      -0.118767
 8728 Fit      -0.124295
 8729 Fit      -0.099874
 8730 Fit      -0.102632
 8731 Fit      -0.106073
 8732 Fit      -0.110151
 8733 Fit      -0.114698
 8734 Fit      -0.119332
 8735 Fit      -0.094649
 8736 Fit      -0.098164
 8737 Fit      -0.101893
 8738 Fit      -0.105881
 8739 Fit      -0.109985
 8740 Fit      -0.113836
 8741 Fit      -0.088498
 8742 Fit      -0.092622
 8743 Fit      -0.096554
 8744 Fit      -0.100481
 8745 Fit      -0.104343
 8746 Fit      -0.107846
 8747 Fit      -0.110415
 8748 Fit      -0.081509
 8749 Fit      -0.086514
 8750 Fit      -0.090816
 8751 Fit      -0.094822
 8752 Fit      -0.098611
 8753 Fit      -0.102007
 8754 Fit      -0.104574
 8755 Fit      -0.080887
 8756 Fit      -0.085574
 8757 Fit      -0.089686
 8758 Fit      -0.093420
 8759 Fit      -0.096714
 8760 Fit      -0.099272
 8761 Fit      -0.100597
 8762 Fit      -0.078264
 8763 Fit      -0.083073
 8764 Fit      -0.087226
 8765 Fit      -0.090845
 8766 Fit      -0.093798
 8767 Fit      -0.095726
 8768 Fit      -0.096152
 8769 Fit      -0.089745
 8770 Fit      -0.086904
 8771 Fit      -0.076606
 8772 Fit      -0.081220
 8773 Fit      -0.085209
 8774 Fit      -0.088537
 8775 Fit      -0.090971
 8776 Fit      -0.092131
 8777 Fit      -0.091700
 8778 Fit      -0.087394
 8779 Fit      -0.078841
 8780 Fit      -0.082791
 8781 Fit      -0.085964
 8782 Fit      -0.087984
 8783 Fit      -0.088475
 8784 Fit      -0.084699
 8785 Fit      -0.079919
 8786 Fit      -0.083252
 8787 Fit      -0.084993
 8788 Fit      -0.080843
 8789 Fit      -0.088772
 8790 Fit      -0.084026
 8791 Fit      -0.082028
 8792 Fit      -0.081127
 8793 Fit      -0.081264
 8794 Fit      -0.082386
 8795 Fit      -0.084436
 8796 Fit      -0.087345
 8797 Fit      -0.091004
 8798 Fit      -0.080630
 8799 Fit      -0.077889
 8800 Fit      -0.076090
 8801 Fit      -0.075192
 8802 Fit      -0.075158
 8803 Fit      -0.075949
 8804 Fit      -0.077521
 8805 Fit      -0.079817
 8806 Fit      -0.082757
 8807 Fit      -0.086215
 8808 Fit      -0.089989
 8809 Fit      -0.080240
 8810 Fit      -0.076656
 8811 Fit      -0.073872
 8812 Fit      -0.071886
 8813 Fit      -0.070682
 8814 Fit      -0.070237
 8815 Fit      -0.070524
 8816 Fit      -0.071509
 8817 Fit      -0.073151
 8818 Fit      -0.075390
 8819 Fit      -0.078138
 8820 Fit      -0.081258
 8821 Fit      -0.084536
 8822 Fit      -0.087641
 8823 Fit      -0.081104
 8824 Fit      -0.076994
 8825 Fit      -0.073480
 8826 Fit      -0.070648
 8827 Fit      -0.068535
 8828 Fit      -0.067150
 8829 Fit      -0.066485
 8830 Fit      -0.066523
 8831 Fit      -0.067235
 8832 Fit      -0.068584
 8833 Fit      -0.070511
 8834 Fit      -0.072929
 8835 Fit      -0.075708
 8836 Fit      -0.078646
 8837 Fit      -0.081436
 8838 Fit      -0.083605
 8839 Fit      -0.076337
 8840 Fit      -0.072717
 8841 Fit      -0.069575
 8842 Fit      -0.067037
 8843 Fit      -0.065167
 8844 Fit      -0.063994
 8845 Fit      -0.063522
 8846 Fit      -0.063737
 8847 Fit      -0.064607
 8848 Fit      -0.066084
 8849 Fit      -0.068089
 8850 Fit      -0.070504
 8851 Fit      -0.073150
 8852 Fit      -0.075760
 8853 Fit      -0.077946
 8854 Fit      -0.075527
 8855 Fit      -0.072337
 8856 Fit      -0.069243
 8857 Fit      -0.066505
 8858 Fit      -0.064284
 8859 Fit      -0.062674
 8860 Fit      -0.061718
 8861 Fit      -0.061432
 8862 Fit      -0.061803
 8863 Fit      -0.062794
 8864 Fit      -0.064340
 8865 Fit      -0.066338
 8866 Fit      -0.068634
 8867 Fit      -0.071003
 8868 Fit      -0.073136
 8869 Fit      -0.074633
 8870 Fit      -0.074189
 8871 Fit      -0.072164
 8872 Fit      -0.069528
 8873 Fit      -0.066780
 8874 Fit      -0.064279
 8875 Fit      -0.062263
 8876 Fit      -0.060872
 8877 Fit      -0.060179
 8878 Fit      -0.060203
 8879 Fit      -0.060918
 8880 Fit      -0.062255
 8881 Fit      -0.064089
 8882 Fit      -0.066233
 8883 Fit      -0.068419
 8884 Fit      -0.070305
 8885 Fit      -0.070369
 8886 Fit      -0.069267
 8887 Fit      -0.067285
 8888 Fit      -0.064962
 8889 Fit      -0.062751
 8890 Fit      -0.060979
 8891 Fit      -0.059848
 8892 Fit      -0.059458
 8893 Fit      -0.059824
 8894 Fit      -0.060886
 8895 Fit      -0.062503
 8896 Fit      -0.064447
 8897 Fit      -0.066409
 8898 Fit      -0.068035
 8899 Fit      -0.066484
 8900 Fit      -0.064861
 8901 Fit      -0.062867
 8902 Fit      -0.061054
 8903 Fit      -0.059834
 8904 Fit      -0.059434
 8905 Fit      -0.059903
 8906 Fit      -0.061128
 8907 Fit      -0.062841
 8908 Fit      -0.064647
 8909 Fit      -0.066128
 8910 Fit      -0.065083
 8911 Fit      -0.064225
 8912 Fit      -0.062598
 8913 Fit      -0.060925
 8914 Fit      -0.060009
 8915 Fit      -0.060248
 8916 Fit      -0.061507
 8917 Fit      -0.063212
 8918 Fit      -0.064635
 8919 Fit      -0.063637
 8920 Fit      -0.063749
 8921 Fit      -0.062857
 8922 Fit      -0.061352
 8923 Fit      -0.061069
 8924 Fit      -0.062413
 8925 Fit      -0.062278
 -----------------------------------------------------------------
 Leave Link  602 at Tue May 31 17:20:50 2016, MaxMem=    33554432 cpu:         1.7

 Test job not archived.
 1\1\GINC-NID00028\SP\RHF\6-31G(d)\C7H13O10P1(2-)\NMIH\31-May-2016\0\\#
 HF/6-31G* Test Pop=MK iop(6/33=2) iop(6/42=6)\\S7P_ideal.pdb\\-2,1\O,0
 ,-4.858,-0.437,1.333\P,0,-4.486,0.077,-0.146\O,0,-4.707,-1.016,-1.119\
 O,0,-5.419,1.332,-0.529\O,0,-2.941,0.526,-0.186\C,0,-1.86,-0.389,0.006
 \C,0,-0.531,0.363,-0.093\O,0,-0.431,1.297,0.984\C,0,0.627,-0.634,-0.01
 3\O,0,0.527,-1.568,-1.09\C,0,1.955,0.119,-0.112\O,0,2.056,1.053,0.965\
 C,0,3.113,-0.878,-0.032\O,0,2.988,-1.659,1.158\C,0,4.42,-0.129,-0.006\
 O,0,5.038,-0.029,1.027\C,0,4.957,0.495,-1.269\O,0,6.199,1.144,-0.989\H
 ,0,-1.944,-0.85,0.99\H,0,-1.898,-1.162,-0.762\H,0,-0.486,0.897,-1.043\
 H,0,-0.464,0.891,1.861\H,0,0.582,-1.168,0.936\H,0,0.56,-1.161,-1.967\H
 ,0,2.001,0.653,-1.061\H,0,2.022,0.646,1.842\H,0,3.088,-1.535,-0.902\H,
 0,3.003,-1.139,1.973\H,0,5.112,-0.279,-2.019\H,0,4.241,1.227,-1.644\H,
 0,6.602,1.569,-1.758\\Version=ES64L-G09RevD.01\State=1-A\HF=-1361.8110
 889\RMSD=5.907e-09\Dipole=17.3539409,-0.4335431,-1.26009\Quadrupole=-1
 31.4414622,54.2410319,77.2004303,6.6777183,-18.827951,-2.5881264\PG=C0
 1 [X(C7H13O10P1)]\\@


 NECESSARY EVIL: ONE WE LIKE TOO MUCH TO RELINQUISH.
 Job cpu time:       0 days  0 hours  1 minutes 25.1 seconds.
 File lengths (MBytes):  RWF=     50 Int=      0 D2E=      0 Chk=      4 Scr=      1
 Normal termination of Gaussian 09 at Tue May 31 17:20:50 2016.
