 Entering Gaussian System, Link 0=g09
 Input=PEP.gau
 Output=PEP.log
 Initial command:
 /usr/common/usg/g09/c1/g09/l1.exe /scratch/scratchdirs/nmih/Gau-19258.inp -scrdir=/scratch/scratchdirs/nmih/
 Entering Link 1 = /usr/common/usg/g09/c1/g09/l1.exe PID=     19259.
  
 Copyright (c) 1988,1990,1992,1993,1995,1998,2003,2009,2011,
            Gaussian, Inc.  All Rights Reserved.
  
 This is part of the Gaussian(R) 09 program.  It is based on
 the Gaussian(R) 03 system (copyright 2003, Gaussian, Inc.),
 the Gaussian(R) 98 system (copyright 1998, Gaussian, Inc.),
 the Gaussian(R) 94 system (copyright 1995, Gaussian, Inc.),
 the Gaussian 92(TM) system (copyright 1992, Gaussian, Inc.),
 the Gaussian 90(TM) system (copyright 1990, Gaussian, Inc.),
 the Gaussian 88(TM) system (copyright 1988, Gaussian, Inc.),
 the Gaussian 86(TM) system (copyright 1986, Carnegie Mellon
 University), and the Gaussian 82(TM) system (copyright 1983,
 Carnegie Mellon University). Gaussian is a federally registered
 trademark of Gaussian, Inc.
  
 This software contains proprietary and confidential information,
 including trade secrets, belonging to Gaussian, Inc.
  
 This software is provided under written license and may be
 used, copied, transmitted, or stored only in accord with that
 written license.
  
 The following legend is applicable only to US Government
 contracts under FAR:
  
                    RESTRICTED RIGHTS LEGEND
  
 Use, reproduction and disclosure by the US Government is
 subject to restrictions as set forth in subparagraphs (a)
 and (c) of the Commercial Computer Software - Restricted
 Rights clause in FAR 52.227-19.
  
 Gaussian, Inc.
 340 Quinnipiac St., Bldg. 40, Wallingford CT 06492
  
  
 ---------------------------------------------------------------
 Warning -- This program may not be used in any manner that
 competes with the business of Gaussian, Inc. or will provide
 assistance to any competitor of Gaussian, Inc.  The licensee
 of this program is prohibited from giving any competitor of
 Gaussian, Inc. access to this program.  By using this program,
 the user acknowledges that Gaussian, Inc. is engaged in the
 business of creating and licensing software in the field of
 computational chemistry and represents and warrants to the
 licensee that it is not a competitor of Gaussian, Inc. and that
 it will not use this program in any manner prohibited above.
 ---------------------------------------------------------------
  

 Cite this work as:
 Gaussian 09, Revision C.01,
 M. J. Frisch, G. W. Trucks, H. B. Schlegel, G. E. Scuseria, 
 M. A. Robb, J. R. Cheeseman, G. Scalmani, V. Barone, B. Mennucci, 
 G. A. Petersson, H. Nakatsuji, M. Caricato, X. Li, H. P. Hratchian, 
 A. F. Izmaylov, J. Bloino, G. Zheng, J. L. Sonnenberg, M. Hada, 
 M. Ehara, K. Toyota, R. Fukuda, J. Hasegawa, M. Ishida, T. Nakajima, 
 Y. Honda, O. Kitao, H. Nakai, T. Vreven, J. A. Montgomery, Jr., 
 J. E. Peralta, F. Ogliaro, M. Bearpark, J. J. Heyd, E. Brothers, 
 K. N. Kudin, V. N. Staroverov, T. Keith, R. Kobayashi, J. Normand, 
 K. Raghavachari, A. Rendell, J. C. Burant, S. S. Iyengar, J. Tomasi, 
 M. Cossi, N. Rega, J. M. Millam, M. Klene, J. E. Knox, J. B. Cross, 
 V. Bakken, C. Adamo, J. Jaramillo, R. Gomperts, R. E. Stratmann, 
 O. Yazyev, A. J. Austin, R. Cammi, C. Pomelli, J. W. Ochterski, 
 R. L. Martin, K. Morokuma, V. G. Zakrzewski, G. A. Voth, 
 P. Salvador, J. J. Dannenberg, S. Dapprich, A. D. Daniels, 
 O. Farkas, J. B. Foresman, J. V. Ortiz, J. Cioslowski, 
 and D. J. Fox, Gaussian, Inc., Wallingford CT, 2010.
 
 ******************************************
 Gaussian 09:  AM64L-G09RevC.01 23-Sep-2011
                16-Sep-2015 
 ******************************************
 %chk=PEP.chk
 ------------------------------------------------------------
 #HF/6-31G* SCF=tight Test Pop=MK iop(6/33=2) iop(6/42=6) opt
 ------------------------------------------------------------
 1/18=20,19=15,38=1/1,3;
 2/9=110,12=2,17=6,18=5,40=1/2;
 3/5=1,6=6,7=1,11=9,16=1,25=1,30=1,71=1/1,2,3;
 4//1;
 5/5=2,32=2,38=5/2;
 6/7=2,8=2,9=2,10=2,15=8,20=1,28=1,33=2,42=6/1,2;
 7//1,2,3,16;
 1/18=20,19=15/3(2);
 2/9=110/2;
 99//99;
 2/9=110/2;
 3/5=1,6=6,7=1,11=9,16=1,25=1,30=1,71=1/1,2,3;
 4/5=5,16=3/1;
 5/5=2,32=2,38=5/2;
 7//1,2,3,16;
 1/18=20,19=15/3(-5);
 2/9=110/2;
 6/7=2,8=2,9=2,10=2,15=8,19=2,20=1,28=1,33=2,42=6/1,2;
 99/9=1/99;
 -------
 PEP.pdb
 -------
 Charge = -3 Multiplicity = 1
 Symbolic Z-Matrix:
 C                     0.334    -0.083     1.96 
 O                     1.524    -0.292     1.834 
 O                    -0.13      0.515     3.074 
 C                    -0.601    -0.484     0.894 
 C                    -1.907    -0.254     1.032 
 O                    -0.131    -1.088    -0.229 
 P                     0.11      0.074    -1.316 
 O                     1.007     1.103    -0.746 
 O                     0.786    -0.555    -2.635 
 O                    -1.299     0.747    -1.705 
 H                    -2.602    -0.622     0.291 
 H                    -2.271     0.3       1.884 
 

 GradGradGradGradGradGradGradGradGradGradGradGradGradGradGradGradGradGrad
 Berny optimization.
 Initialization pass.
                           ----------------------------
                           !    Initial Parameters    !
                           ! (Angstroms and Degrees)  !
 --------------------------                            --------------------------
 ! Name  Definition              Value          Derivative Info.                !
 --------------------------------------------------------------------------------
 ! R1    R(1,2)                  1.2148         estimate D2E/DX2                !
 ! R2    R(1,3)                  1.3468         estimate D2E/DX2                !
 ! R3    R(1,4)                  1.4736         estimate D2E/DX2                !
 ! R4    R(4,5)                  1.3333         estimate D2E/DX2                !
 ! R5    R(4,6)                  1.359          estimate D2E/DX2                !
 ! R6    R(5,11)                 1.0805         estimate D2E/DX2                !
 ! R7    R(5,12)                 1.0795         estimate D2E/DX2                !
 ! R8    R(6,7)                  1.6093         estimate D2E/DX2                !
 ! R9    R(7,8)                  1.4793         estimate D2E/DX2                !
 ! R10   R(7,9)                  1.6101         estimate D2E/DX2                !
 ! R11   R(7,10)                 1.6092         estimate D2E/DX2                !
 ! A1    A(2,1,3)              119.9788         estimate D2E/DX2                !
 ! A2    A(2,1,4)              119.9819         estimate D2E/DX2                !
 ! A3    A(3,1,4)              120.0393         estimate D2E/DX2                !
 ! A4    A(1,4,5)              119.9816         estimate D2E/DX2                !
 ! A5    A(1,4,6)              119.9537         estimate D2E/DX2                !
 ! A6    A(5,4,6)              120.0648         estimate D2E/DX2                !
 ! A7    A(4,5,11)             120.0213         estimate D2E/DX2                !
 ! A8    A(4,5,12)             120.0347         estimate D2E/DX2                !
 ! A9    A(11,5,12)            119.944          estimate D2E/DX2                !
 ! A10   A(4,6,7)              106.8            estimate D2E/DX2                !
 ! A11   A(6,7,8)              109.4388         estimate D2E/DX2                !
 ! A12   A(6,7,9)              109.5195         estimate D2E/DX2                !
 ! A13   A(6,7,10)             109.5196         estimate D2E/DX2                !
 ! A14   A(8,7,9)              109.4396         estimate D2E/DX2                !
 ! A15   A(8,7,10)             109.4606         estimate D2E/DX2                !
 ! A16   A(9,7,10)             109.4491         estimate D2E/DX2                !
 ! D1    D(2,1,4,5)           -179.9661         estimate D2E/DX2                !
 ! D2    D(2,1,4,6)              0.0331         estimate D2E/DX2                !
 ! D3    D(3,1,4,5)              0.0395         estimate D2E/DX2                !
 ! D4    D(3,1,4,6)           -179.9613         estimate D2E/DX2                !
 ! D5    D(1,4,5,11)          -174.7986         estimate D2E/DX2                !
 ! D6    D(1,4,5,12)             5.2036         estimate D2E/DX2                !
 ! D7    D(6,4,5,11)             5.2022         estimate D2E/DX2                !
 ! D8    D(6,4,5,12)          -174.7956         estimate D2E/DX2                !
 ! D9    D(1,4,6,7)            -93.6499         estimate D2E/DX2                !
 ! D10   D(5,4,6,7)             86.3493         estimate D2E/DX2                !
 ! D11   D(4,6,7,8)             55.2903         estimate D2E/DX2                !
 ! D12   D(4,6,7,9)            175.2613         estimate D2E/DX2                !
 ! D13   D(4,6,7,10)           -64.7065         estimate D2E/DX2                !
 --------------------------------------------------------------------------------
 Trust Radius=3.00D-01 FncErr=1.00D-07 GrdErr=1.00D-07
 Number of steps in this run=     50 maximum allowed number of steps=    100.
 GradGradGradGradGradGradGradGradGradGradGradGradGradGradGradGradGradGrad

                          Input orientation:                          
 ---------------------------------------------------------------------
 Center     Atomic      Atomic             Coordinates (Angstroms)
 Number     Number       Type             X           Y           Z
 ---------------------------------------------------------------------
      1          6           0        0.334000   -0.083000    1.960000
      2          8           0        1.524000   -0.292000    1.834000
      3          8           0       -0.130000    0.515000    3.074000
      4          6           0       -0.601000   -0.484000    0.894000
      5          6           0       -1.907000   -0.254000    1.032000
      6          8           0       -0.131000   -1.088000   -0.229000
      7         15           0        0.110000    0.074000   -1.316000
      8          8           0        1.007000    1.103000   -0.746000
      9          8           0        0.786000   -0.555000   -2.635000
     10          8           0       -1.299000    0.747000   -1.705000
     11          1           0       -2.602000   -0.622000    0.291000
     12          1           0       -2.271000    0.300000    1.884000
 ---------------------------------------------------------------------
                    Distance matrix (angstroms):
                    1          2          3          4          5
     1  C    0.000000
     2  O    1.214766   0.000000
     3  O    1.346810   2.219136   0.000000
     4  C    1.473561   2.331542   2.443817   0.000000
     5  C    2.431565   3.523693   2.814046   1.333259   0.000000
     6  O    2.453155   2.761994   3.671433   1.358987   2.332349
     7  P    3.287400   3.472154   4.418618   2.387674   3.112712
     8  O    3.030175   2.978207   4.028761   2.791744   3.673436
     9  O    4.641240   4.537155   5.880190   3.792447   4.559577
    10  O    4.097293   4.644714   4.925366   2.959285   2.977051
    11  H    3.419968   4.417423   3.892126   2.094434   1.080523
    12  H    2.634101   3.841222   2.458903   2.093718   1.079498
                    6          7          8          9         10
     6  O    0.000000
     7  P    1.609315   0.000000
     8  O    2.522462   1.479307   0.000000
     9  O    2.629413   1.610086   2.523118   0.000000
    10  O    2.628693   1.609202   2.522707   2.628180   0.000000
    11  H    2.567761   3.228283   4.132297   4.477109   2.748815
    12  H    3.312237   3.995027   4.278667   5.522466   3.745065
                   11         12
    11  H    0.000000
    12  H    1.870105   0.000000
 Stoichiometry    C3H2O6P(3-)
 Framework group  C1[X(C3H2O6P)]
 Deg. of freedom    30
 Full point group                 C1      NOp   1
 Largest Abelian subgroup         C1      NOp   1
 Largest concise Abelian subgroup C1      NOp   1
                         Standard orientation:                         
 ---------------------------------------------------------------------
 Center     Atomic      Atomic             Coordinates (Angstroms)
 Number     Number       Type             X           Y           Z
 ---------------------------------------------------------------------
      1          6           0       -1.921812   -0.402852   -0.068113
      2          8           0       -1.770474   -1.589018   -0.282037
      3          8           0       -3.043291    0.034291    0.536112
      4          6           0       -0.878349    0.556882   -0.469953
      5          6           0       -1.044154    1.858678   -0.234549
      6          8           0        0.252235    0.113960   -1.080236
      7         15           0        1.349074   -0.107209    0.076450
      8          8           0        0.803242   -1.020286    1.104413
      9          8           0        2.680047   -0.751665   -0.560391
     10          8           0        1.709695    1.307583    0.753095
     11          1           0       -0.320182    2.571184   -0.602964
     12          1           0       -1.901676    2.201786    0.324244
 ---------------------------------------------------------------------
 Rotational constants (GHZ):      2.3547298      0.9021727      0.7769023
 Standard basis: 6-31G(d) (6D, 7F)
 There are   158 symmetry adapted basis functions of A   symmetry.
 Integral buffers will be    131072 words long.
 Raffenetti 1 integral format.
 Two-electron integral symmetry is turned on.
   158 basis functions,   312 primitive gaussians,   158 cartesian basis functions
    43 alpha electrons       43 beta electrons
       nuclear repulsion energy       654.2210199082 Hartrees.
 NAtoms=   12 NActive=   12 NUniq=   12 SFac= 1.00D+00 NAtFMM=   60 NAOKFM=F Big=F
 One-electron integrals computed using PRISM.
 NBasis=   158 RedAO= T  NBF=   158
 NBsUse=   158 1.00D-06 NBFU=   158
 Harris functional with IExCor=  205 diagonalized for initial guess.
 ExpMin= 9.98D-02 ExpMax= 1.94D+04 ExpMxC= 2.91D+03 IAcc=2 IRadAn=         4 AccDes= 0.00D+00
 HarFok:  IExCor=  205 AccDes= 0.00D+00 IRadAn=         4 IDoV= 1
 ScaDFX=  1.000000  1.000000  1.000000  1.000000
 FoFCou: FMM=F IPFlag=           0 FMFlag=      100000 FMFlg1=           0
         NFxFlg=           0 DoJE=T BraDBF=F KetDBF=T FulRan=T
         Omega=  0.000000  0.000000  1.000000  0.000000  0.000000 ICntrl=     500 IOpCl=  0
         NMat0=    1 NMatS0=    1 NMatT0=    0 NMatD0=    1 NMtDS0=    0 NMtDT0=    0
         I1Cent=           4 NGrid=           0.
 Petite list used in FoFCou.
 Initial guess orbital symmetries:
       Occupied  (A) (A) (A) (A) (A) (A) (A) (A) (A) (A) (A) (A)
                 (A) (A) (A) (A) (A) (A) (A) (A) (A) (A) (A) (A)
                 (A) (A) (A) (A) (A) (A) (A) (A) (A) (A) (A) (A)
                 (A) (A) (A) (A) (A) (A) (A)
       Virtual   (A) (A) (A) (A) (A) (A) (A) (A) (A) (A) (A) (A)
                 (A) (A) (A) (A) (A) (A) (A) (A) (A) (A) (A) (A)
                 (A) (A) (A) (A) (A) (A) (A) (A) (A) (A) (A) (A)
                 (A) (A) (A) (A) (A) (A) (A) (A) (A) (A) (A) (A)
                 (A) (A) (A) (A) (A) (A) (A) (A) (A) (A) (A) (A)
                 (A) (A) (A) (A) (A) (A) (A) (A) (A) (A) (A) (A)
                 (A) (A) (A) (A) (A) (A) (A) (A) (A) (A) (A) (A)
                 (A) (A) (A) (A) (A) (A) (A) (A) (A) (A) (A) (A)
                 (A) (A) (A) (A) (A) (A) (A) (A) (A) (A) (A) (A)
                 (A) (A) (A) (A) (A) (A) (A)
 The electronic state of the initial guess is 1-A.
 Requested convergence on RMS density matrix=1.00D-08 within 128 cycles.
 Requested convergence on MAX density matrix=1.00D-06.
 Requested convergence on             energy=1.00D-06.
 No special actions if energy rises.
 Integral accuracy reduced to 1.0D-05 until final iterations.
 Initial convergence to 1.0D-05 achieved.  Increase integral accuracy.
 SCF Done:  E(RHF) =  -904.339890296     A.U. after   15 cycles
             Convg  =    0.5917D-08             -V/T =  2.0015

 **********************************************************************

            Population analysis using the SCF density.

 **********************************************************************

 Orbital symmetries:
 BldTbl:  Degeneracy threshold= 1.00D-02
       Occupied  (A) (A) (A) (A) (A) (A) (A) (A) (A) (A) (A) (A)
                 (A) (A) (A) (A) (A) (A) (A) (A) (A) (A) (A) (A)
                 (A) (A) (A) (A) (A) (A) (A) (A) (A) (A) (A) (A)
                 (A) (A) (A) (A) (A) (A) (A)
       Virtual   (A) (A) (A) (A) (A) (A) (A) (A) (A) (A) (A) (A)
                 (A) (A) (A) (A) (A) (A) (A) (A) (A) (A) (A) (A)
                 (A) (A) (A) (A) (A) (A) (A) (A) (A) (A) (A) (A)
                 (A) (A) (A) (A) (A) (A) (A) (A) (A) (A) (A) (A)
                 (A) (A) (A) (A) (A) (A) (A) (A) (A) (A) (A) (A)
                 (A) (A) (A) (A) (A) (A) (A) (A) (A) (A) (A) (A)
                 (A) (A) (A) (A) (A) (A) (A) (A) (A) (A) (A) (A)
                 (A) (A) (A) (A) (A) (A) (A) (A) (A) (A) (A) (A)
                 (A) (A) (A) (A) (A) (A) (A) (A) (A) (A) (A) (A)
                 (A) (A) (A) (A) (A) (A) (A)
 The electronic state is 1-A.
 Alpha  occ. eigenvalues --  -79.51931 -20.11727 -20.03381 -20.01015 -19.94452
 Alpha  occ. eigenvalues --  -19.93963 -19.93913 -10.87061 -10.84769 -10.79017
 Alpha  occ. eigenvalues --   -7.03963  -4.93952  -4.93732  -4.93624  -0.95823
 Alpha  occ. eigenvalues --   -0.89923  -0.76129  -0.75739  -0.67450  -0.65544
 Alpha  occ. eigenvalues --   -0.59140  -0.40503  -0.30144  -0.23448  -0.19390
 Alpha  occ. eigenvalues --   -0.18759  -0.12831  -0.10735  -0.10139  -0.07545
 Alpha  occ. eigenvalues --   -0.07044  -0.00468   0.00801   0.05298   0.05945
 Alpha  occ. eigenvalues --    0.07424   0.08136   0.08655   0.09254   0.09717
 Alpha  occ. eigenvalues --    0.13077   0.14054   0.16232
 Alpha virt. eigenvalues --    0.58036   0.70358   0.71634   0.77690   0.80004
 Alpha virt. eigenvalues --    0.85175   0.86615   0.88395   0.88719   0.94580
 Alpha virt. eigenvalues --    0.97083   1.04167   1.04763   1.07746   1.08909
 Alpha virt. eigenvalues --    1.13117   1.16686   1.20726   1.29302   1.29470
 Alpha virt. eigenvalues --    1.32405   1.34576   1.35886   1.40083   1.43435
 Alpha virt. eigenvalues --    1.45388   1.48361   1.52948   1.53712   1.57974
 Alpha virt. eigenvalues --    1.59590   1.60287   1.63071   1.63976   1.68508
 Alpha virt. eigenvalues --    1.69940   1.73885   1.75206   1.77968   1.81028
 Alpha virt. eigenvalues --    1.81992   1.83206   1.85576   1.89023   1.89771
 Alpha virt. eigenvalues --    1.91121   1.94194   1.95309   1.96958   1.98339
 Alpha virt. eigenvalues --    2.04403   2.06831   2.08806   2.10100   2.14803
 Alpha virt. eigenvalues --    2.17976   2.20499   2.23171   2.23304   2.28003
 Alpha virt. eigenvalues --    2.35672   2.40680   2.44062   2.49431   2.53008
 Alpha virt. eigenvalues --    2.58528   2.59901   2.64672   2.65596   2.66459
 Alpha virt. eigenvalues --    2.67101   2.69799   2.69881   2.70724   2.70938
 Alpha virt. eigenvalues --    2.72510   2.73815   2.74600   2.77766   2.79109
 Alpha virt. eigenvalues --    2.86384   2.87118   2.87717   2.94191   2.97867
 Alpha virt. eigenvalues --    3.05335   3.06471   3.07661   3.13327   3.16126
 Alpha virt. eigenvalues --    3.21167   3.27923   3.34928   3.37329   3.40320
 Alpha virt. eigenvalues --    3.51048   3.52939   3.57122   3.65587   3.68370
 Alpha virt. eigenvalues --    3.75117   3.79310   3.82740   4.00942   4.07780
 Alpha virt. eigenvalues --    4.45736   4.66724   4.69040   4.78757   4.90988
 Alpha virt. eigenvalues --    4.99724   5.08179   5.14631   5.37762   5.62505
          Condensed to atoms (all electrons):
              1          2          3          4          5          6
     1  C    4.025387   0.535070   0.482351   0.307779  -0.063876  -0.026702
     2  O    0.535070   8.371673  -0.111141  -0.105550   0.005492   0.000736
     3  O    0.482351  -0.111141   8.663404  -0.110186  -0.001415   0.001384
     4  C    0.307779  -0.105550  -0.110186   4.839109   0.613928   0.209542
     5  C   -0.063876   0.005492  -0.001415   0.613928   5.236515  -0.078829
     6  O   -0.026702   0.000736   0.001384   0.209542  -0.078829   8.567529
     7  P   -0.007612   0.005605   0.000194  -0.041414  -0.016302   0.180289
     8  O    0.004129  -0.004242  -0.000156   0.008869  -0.002237  -0.035818
     9  O   -0.000077  -0.000013   0.000000  -0.000435  -0.000137  -0.027226
    10  O   -0.000262   0.000001   0.000000  -0.012083   0.002314  -0.027432
    11  H    0.003017  -0.000067   0.000388  -0.023652   0.356759  -0.001313
    12  H   -0.000272   0.000244   0.014790  -0.022532   0.355225   0.003119
              7          8          9         10         11         12
     1  C   -0.007612   0.004129  -0.000077  -0.000262   0.003017  -0.000272
     2  O    0.005605  -0.004242  -0.000013   0.000001  -0.000067   0.000244
     3  O    0.000194  -0.000156   0.000000   0.000000   0.000388   0.014790
     4  C   -0.041414   0.008869  -0.000435  -0.012083  -0.023652  -0.022532
     5  C   -0.016302  -0.002237  -0.000137   0.002314   0.356759   0.355225
     6  O    0.180289  -0.035818  -0.027226  -0.027432  -0.001313   0.003119
     7  P   11.931938   0.553464   0.492680   0.485189  -0.002225   0.000759
     8  O    0.553464   8.472778  -0.053375  -0.052068   0.000036  -0.000008
     9  O    0.492680  -0.053375   8.645024  -0.044542  -0.000047   0.000000
    10  O    0.485189  -0.052068  -0.044542   8.664370   0.004193   0.000215
    11  H   -0.002225   0.000036  -0.000047   0.004193   0.588711  -0.036574
    12  H    0.000759  -0.000008   0.000000   0.000215  -0.036574   0.557678
 Mulliken atomic charges:
              1
     1  C    0.741068
     2  O   -0.697808
     3  O   -0.939612
     4  C    0.336625
     5  C   -0.407437
     6  O   -0.765281
     7  P    1.417434
     8  O   -0.891370
     9  O   -1.011852
    10  O   -1.019897
    11  H    0.110773
    12  H    0.127356
 Sum of Mulliken atomic charges =  -3.00000
 Mulliken charges with hydrogens summed into heavy atoms:
              1
     1  C    0.741068
     2  O   -0.697808
     3  O   -0.939612
     4  C    0.336625
     5  C   -0.169309
     6  O   -0.765281
     7  P    1.417434
     8  O   -0.891370
     9  O   -1.011852
    10  O   -1.019897
 Sum of Mulliken charges with hydrogens summed into heavy atoms =  -3.00000
 DipInt: DoE/N= T F RetVal/Mat= T F Init=T NMatP=  1 IDeriv=0 Min/MaxMlt=  0  4
 Entering OneElI...
 OneElI was handed    33488051 working-precision words.
 Multipole integrals L=0 to 4 MinM= 0 MaxM= 0.
 Requested accuracy = 0.1000D-12
 PrsmSu:  NPrtUS=   1 ThrOK=F IAlg=1 NPAlg=1 LenDen=           0.
 Prism:   IPart=     0 DynPar=F LinDyn=F Incr=           9.
 PRISM was handed    33380987 working-precision words and   949 shell-pairs
 IPart=  0 NShTot=         949 NBatch=          58 AvBLen=        16.4
 PrSmSu:  NxtVal=             10.
 Electronic moments (au):
        -86.00000000         -1.46110323          1.52752810         -1.54509181
      -1001.19832606       -360.28184465       -170.67473425         -2.78221422
          2.67341392         -2.07740229        673.51975238       -278.11945582
        -25.33991243        194.07854082        318.02128683       -156.75603077
       -110.64911427         20.68342373        -27.72530223        -85.91791055
     -22932.33784057      -4250.62610203       -937.45112300        350.92048513
       2194.18763337       -115.80021892          3.22585681        -76.78337534
        104.19424683      -3357.00416892      -1547.83662226       -660.70919577
       -739.63358200       -466.70307094         56.35066344
 Electronic spatial extent (au):  <R**2>=           1532.1549
 DipInt: DoE/N= F T RetVal/Mat= T F Init=T NMatP=  1 IDeriv=0 Min/MaxMlt=  0  4
 Nuclear    moments (au):
         83.00000000          0.00000000          0.00000000          0.00000000
        892.89259889        292.94516793        111.83764996          0.00000000
          0.00000000          0.00000000       -642.40559203        274.85703511
         19.39600928       -201.29821581       -297.06726003        142.99064569
         99.86597118        -22.15320980         19.95796491         74.11300463
      17912.02873487       2871.45773743        348.44627174       -278.70863341
      -1952.34959579         67.95027544        -16.02809348         68.78232104
        -92.71168484       2389.64820801        810.41507320        325.64201743
        672.02186933        414.84557755        -39.72932120
 Total      moments (au):
         -3.00000000         -1.46110323          1.52752810         -1.54509181
       -108.30572716        -67.33667671        -58.83708428         -2.78221422
          2.67341392         -2.07740229         31.11416035         -3.26242071
         -5.94390315         -7.21967499         20.95402680        -13.76538508
        -10.78314308         -1.46978608         -7.76733732        -11.80490592
      -5020.30910570      -1379.16836460       -589.00485125         72.21185172
        241.83803759        -47.84994348        -12.80223667         -8.00105430
         11.48256198       -967.35596091       -737.42154906       -335.06717834
        -67.61171267        -51.85749339         16.62134225
 Traceless Quadrup. (au):
        -30.14589778         10.82315267         19.32274510         -2.78221422
          2.67341392         -2.07740229
 Charge=             -3.0000 electrons
 Dipole moment (field-independent basis, Debye):
    X=             -3.7138    Y=              3.8826    Z=             -3.9272  Tot=              6.6550
 Quadrupole moment (field-independent basis, Debye-Ang):
   XX=           -145.6749   YY=            -90.5701   ZZ=            -79.1379
   XY=             -3.7422   XZ=              3.5958   YZ=             -2.7942
 Traceless Quadrupole moment (field-independent basis, Debye-Ang):
   XX=            -40.5473   YY=             14.5575   ZZ=             25.9898
   XY=             -3.7422   XZ=              3.5958   YZ=             -2.7942
 Octapole moment (field-independent basis, Debye-Ang**2):
  XXX=             22.1459  YYY=             -2.3221  ZZZ=             -4.2306  XYY=             -5.1387
  XXY=             14.9143  XXZ=             -9.7977  XZZ=             -7.6750  YZZ=             -1.0461
  YYZ=             -5.5285  XYZ=             -8.4023
 Hexadecapole moment (field-independent basis, Debye-Ang**3):
 XXXX=          -1890.8890 YYYY=           -519.4609 ZZZZ=           -221.8475 XXXY=             27.1984
 XXXZ=             91.0878 YYYX=            -18.0226 YYYZ=             -4.8219 ZZZX=             -3.0136
 ZZZY=              4.3249 XXYY=           -364.3526 XXZZ=           -277.7483 YYZZ=           -126.2024
 XXYZ=            -25.4658 YYXZ=            -19.5320 ZZXY=              6.2604
 N-N= 6.542210199082D+02 E-N=-3.500137311062D+03  KE= 9.029886999671D+02
 Entering OneElI...
 OneElI was handed    33437665 working-precision words.
 Calculate electrostatic properties
    NBasis =   158  MinDer = 0  MaxDer = 0
    NGrid  =    12  NMatD  =   1
 Requested accuracy = 0.1000D-12
 PrsmSu:  NPrtUS=   1 ThrOK=F IAlg=1 NPAlg=1 LenDen=           0.
 Prism:   IPart=     0 DynPar=F LinDyn=F Incr=         108.
 PRISM was handed    33336393 working-precision words and   906 shell-pairs
 IPart=  0 NShTot=       10872 NBatch=         906 AvBLen=        12.0
 PrSmSu:  NxtVal=            109.
 --------------------------------------------------------
       Center         ----      EFG at Nuclei      ----
                      3XX-RR        3YY-RR        3ZZ-RR
 --------------------------------------------------------
     1   Atom        0.094213      0.313564     -0.407778
     2   Atom        1.192899     -0.881583     -0.311316
     3   Atom       -0.969413      1.180087     -0.210674
     4   Atom       -0.101721      0.353622     -0.251902
     5   Atom        0.000868      0.141188     -0.142056
     6   Atom       -1.265016      1.283875     -0.018859
     7   Atom       -0.163466      0.317972     -0.154505
     8   Atom        0.333160     -0.017324     -0.315835
     9   Atom       -0.829134      0.361664      0.467470
    10   Atom        0.476823     -0.593455      0.116632
    11   Atom       -0.042783     -0.069494      0.112277
    12   Atom       -0.140836      0.100210      0.040626
 --------------------------------------------------------
                        XY            XZ            YZ
 --------------------------------------------------------
     1   Atom        0.048852     -0.310618      0.089409
     2   Atom        0.312623     -0.846458     -0.142133
     3   Atom        0.681645      0.641932     -0.236326
     4   Atom        0.170153     -0.071524      0.009101
     5   Atom       -0.018845     -0.100265      0.034931
     6   Atom        0.893252      0.180031     -0.218167
     7   Atom        0.189987     -0.575316     -0.091764
     8   Atom       -0.123691      0.203911      0.675965
     9   Atom        0.765046      0.338245     -0.210910
    10   Atom       -0.427674     -0.369209     -0.782547
    11   Atom       -0.218063      0.122136      0.108114
    12   Atom        0.137682      0.202867     -0.089394
 --------------------------------------------------------


 ---------------------------------------------------------------------------------
              Nuclear Quadrupole in Principal Axis System
 ---------------------------------------------------------------------------------

       Atom             a.u.   MegaHertz   Gauss  10(-4) cm-1        Axes

              Baa    -0.5679   -76.204   -27.191   -25.419  0.4288 -0.1147  0.8961
     1 C(13)  Bbb     0.2422    32.502    11.597    10.841  0.8968 -0.0656 -0.4376
              Bcc     0.3257    43.702    15.594    14.577  0.1090  0.9912  0.0747
 
              Baa    -0.9287    67.202    23.979    22.416 -0.1214  0.9907  0.0617
     2 O(17)  Bbb    -0.6915    50.038    17.855    16.691  0.4106 -0.0064  0.9118
              Bcc     1.6203  -117.240   -41.834   -39.107  0.9037  0.1360 -0.4060
 
              Baa    -1.5225   110.168    39.311    36.748  0.8497 -0.2547 -0.4617
     3 O(17)  Bbb     0.1429   -10.337    -3.688    -3.448  0.4529 -0.0957  0.8864
              Bcc     1.3797   -99.831   -35.622   -33.300  0.2699  0.9623 -0.0340
 
              Baa    -0.2901   -38.933   -13.892   -12.987  0.4541 -0.1325  0.8810
     4 C(13)  Bbb    -0.1203   -16.149    -5.762    -5.387  0.8323 -0.2897 -0.4725
              Bcc     0.4105    55.082    19.655    18.373  0.3179  0.9479 -0.0213
 
              Baa    -0.1952   -26.198    -9.348    -8.739  0.4491 -0.0674  0.8910
     5 C(13)  Bbb     0.0419     5.629     2.009     1.878  0.8589  0.3073 -0.4097
              Bcc     0.1533    20.569     7.340     6.861 -0.2462  0.9492  0.1959
 
              Baa    -1.5831   114.550    40.874    38.210  0.9405 -0.3045 -0.1507
     6 O(17)  Bbb     0.0024    -0.170    -0.061    -0.057  0.1729  0.0470  0.9838
              Bcc     1.5807  -114.379   -40.813   -38.153  0.2925  0.9514 -0.0968
 
              Baa    -0.7391  -159.790   -57.017   -53.300  0.7164 -0.0685  0.6943
     7 P(31)  Bbb     0.1656    35.799    12.774    11.941 -0.3937  0.7819  0.4834
              Bcc     0.5735   123.992    44.243    41.359  0.5760  0.6196 -0.5332
 
              Baa    -0.9040    65.415    23.342    21.820 -0.1878 -0.6119  0.7683
     8 O(17)  Bbb     0.3722   -26.932    -9.610    -8.984  0.9630 -0.2688  0.0213
              Bcc     0.5318   -38.483   -13.732   -12.837  0.1935  0.7439  0.6397
 
              Baa    -1.2925    93.527    33.373    31.197  0.8744 -0.4325 -0.2199
     9 O(17)  Bbb     0.5483   -39.675   -14.157   -13.234  0.2855  0.0923  0.9539
              Bcc     0.7442   -53.852   -19.216   -17.963  0.3922  0.8969 -0.2041
 
              Baa    -1.2766    92.373    32.961    30.812  0.3045  0.7938  0.5265
    10 O(17)  Bbb     0.5614   -40.624   -14.496   -13.551  0.5910 -0.5909  0.5491
              Bcc     0.7152   -51.750   -18.466   -17.262  0.7470  0.1440 -0.6490
 
              Baa    -0.3338  -178.107   -63.553   -59.410  0.6512  0.6773 -0.3424
    11 H(1)   Bbb     0.1522    81.209    28.978    27.089 -0.4455  0.7064  0.5500
              Bcc     0.1816    96.898    34.576    32.322  0.6144 -0.2056  0.7618
 
              Baa    -0.3343  -178.393   -63.655   -59.505  0.7849 -0.3534 -0.5089
    12 H(1)   Bbb     0.1622    86.553    30.884    28.871  0.3028  0.9354 -0.1825
              Bcc     0.1721    91.840    32.771    30.634  0.5405 -0.0109  0.8413
 

 ---------------------------------------------------------------------------------

 No NMR shielding tensors so no spin-rotation constants.
 Leave Link  601 at Wed Sep 16 23:00:17 2015, MaxMem=   33554432 cpu:       0.3
 Merz-Kollman atomic radii used.
 Atom Element Radius
    1     6    1.50
    2     8    1.40
    3     8    1.40
    4     6    1.50
    5     6    1.50
    6     8    1.40
    7    15    1.80
    8     8    1.40
    9     8    1.40
   10     8    1.40
   11     1    1.20
   12     1    1.20
 Generate VDW surfaces: Layer= 4 Dens= 6 Start= 1.400 Inc= 0.200

 **********************************************************************

            Electrostatic Properties Using The SCF Density

 **********************************************************************

       Atomic Center    1 is at  -1.921812 -0.402852 -0.068113
       Atomic Center    2 is at  -1.770474 -1.589018 -0.282037
       Atomic Center    3 is at  -3.043291  0.034291  0.536112
       Atomic Center    4 is at  -0.878349  0.556882 -0.469953
       Atomic Center    5 is at  -1.044154  1.858678 -0.234549
       Atomic Center    6 is at   0.252235  0.113960 -1.080236
       Atomic Center    7 is at   1.349074 -0.107209  0.076450
       Atomic Center    8 is at   0.803242 -1.020286  1.104413
       Atomic Center    9 is at   2.680047 -0.751665 -0.560391
       Atomic Center   10 is at   1.709695  1.307583  0.753095
       Atomic Center   11 is at  -0.320182  2.571184 -0.602964
       Atomic Center   12 is at  -1.901676  2.201786  0.324244
      ESP Fit Center   13 is at  -1.512122 -0.402852  1.991537
      ESP Fit Center   14 is at  -1.716967 -0.048051  1.991537
      ESP Fit Center   15 is at  -1.716967 -0.757654  1.991537
      ESP Fit Center   16 is at  -1.118177 -0.402852  1.872034
      ESP Fit Center   17 is at  -1.225844 -0.001035  1.872034
      ESP Fit Center   18 is at  -1.519995  0.293116  1.872034
      ESP Fit Center   19 is at  -1.921812 -1.206488  1.872034
      ESP Fit Center   20 is at  -1.519995 -1.098821  1.872034
      ESP Fit Center   21 is at  -1.225844 -0.804670  1.872034
      ESP Fit Center   22 is at  -0.833899  0.018607  1.677974
      ESP Fit Center   23 is at  -1.059612  0.383147  1.677974
      ESP Fit Center   24 is at  -1.401770  0.641532  1.677974
      ESP Fit Center   25 is at  -2.241094 -1.525012  1.677974
      ESP Fit Center   26 is at  -1.814163 -1.564573  1.677974
      ESP Fit Center   27 is at  -1.401770 -1.447237  1.677974
      ESP Fit Center   28 is at  -2.913702  1.034148 -1.234810
      ESP Fit Center   29 is at  -3.617160 -0.820718 -1.234810
      ESP Fit Center   30 is at  -3.467895 -1.214299 -1.234810
      ESP Fit Center   31 is at  -2.894231  0.719378 -1.553037
      ESP Fit Center   32 is at  -3.171010  0.399958 -1.553037
      ESP Fit Center   33 is at  -3.346587  0.015499 -1.553037
      ESP Fit Center   34 is at  -3.406736 -0.402852 -1.553037
      ESP Fit Center   35 is at  -3.346587 -0.821204 -1.553037
      ESP Fit Center   36 is at  -2.624904  0.528192 -1.814199
      ESP Fit Center   37 is at  -2.913758  0.211335 -1.814199
      ESP Fit Center   38 is at  -3.068644 -0.188472 -1.814199
      ESP Fit Center   39 is at  -3.068644 -0.617232 -1.814199
      ESP Fit Center   40 is at  -2.913758 -1.017039 -1.814199
      ESP Fit Center   41 is at  -2.323630  0.293116 -2.008260
      ESP Fit Center   42 is at  -2.617781 -0.001035 -2.008260
      ESP Fit Center   43 is at  -2.725447 -0.402852 -2.008260
      ESP Fit Center   44 is at  -2.617781 -0.804670 -2.008260
      ESP Fit Center   45 is at  -2.126657 -0.048051 -2.127762
      ESP Fit Center   46 is at  -2.331502 -0.402852 -2.127762
      ESP Fit Center   47 is at  -2.126657 -0.757654 -2.127762
      ESP Fit Center   48 is at  -1.716967 -0.757654 -2.127762
      ESP Fit Center   49 is at  -1.921812 -0.402852 -2.168113
      ESP Fit Center   50 is at  -1.770474 -1.589018  1.677963
      ESP Fit Center   51 is at  -1.362967 -1.589018  1.635132
      ESP Fit Center   52 is at  -1.974227 -1.941930  1.635132
      ESP Fit Center   53 is at  -1.566720 -1.941930  1.635132
      ESP Fit Center   54 is at  -2.460873 -1.987620  1.508512
      ESP Fit Center   55 is at  -2.169076 -2.279417  1.508512
      ESP Fit Center   56 is at  -1.770474 -2.386222  1.508512
      ESP Fit Center   57 is at  -1.371872 -2.279417  1.508512
      ESP Fit Center   58 is at  -1.080075 -1.987620  1.508512
      ESP Fit Center   59 is at  -2.902917 -1.800709  1.303636
      ESP Fit Center   60 is at  -2.749974 -2.195499  1.303636
      ESP Fit Center   61 is at  -2.464745 -2.508381  1.303636
      ESP Fit Center   62 is at  -2.085750 -2.697098  1.303636
      ESP Fit Center   63 is at  -1.664175 -2.736163  1.303636
      ESP Fit Center   64 is at  -1.256957 -2.620299  1.303636
      ESP Fit Center   65 is at  -0.919092 -2.365156  1.303636
      ESP Fit Center   66 is at  -3.168037 -1.999380  1.029459
      ESP Fit Center   67 is at  -2.995813 -2.376496  1.029459
      ESP Fit Center   68 is at  -2.724320 -2.689816  1.029459
      ESP Fit Center   69 is at  -2.375552 -2.913956  1.029459
      ESP Fit Center   70 is at  -1.977764 -3.030757  1.029459
      ESP Fit Center   71 is at  -1.563183 -3.030757  1.029459
      ESP Fit Center   72 is at  -1.165395 -2.913956  1.029459
      ESP Fit Center   73 is at  -0.816627 -2.689816  1.029459
      ESP Fit Center   74 is at  -3.348686 -2.213877  0.697963
      ESP Fit Center   75 is at  -3.143707 -2.586731  0.697963
      ESP Fit Center   76 is at  -2.852444 -2.896895  0.697963
      ESP Fit Center   77 is at  -2.493196 -3.124881  0.697963
      ESP Fit Center   78 is at  -2.088537 -3.256362  0.697963
      ESP Fit Center   79 is at  -1.663893 -3.283079  0.697963
      ESP Fit Center   80 is at  -1.245945 -3.203351  0.697963
      ESP Fit Center   81 is at  -0.860956 -3.022189  0.697963
      ESP Fit Center   82 is at  -0.533115 -2.750975  0.697963
      ESP Fit Center   83 is at  -3.587808 -2.003813  0.323636
      ESP Fit Center   84 is at  -3.449944 -2.397808  0.323636
      ESP Fit Center   85 is at  -3.227863 -2.751248  0.323636
      ESP Fit Center   86 is at  -2.932703 -3.046408  0.323636
      ESP Fit Center   87 is at  -2.579264 -3.268488  0.323636
      ESP Fit Center   88 is at  -2.185269 -3.406353  0.323636
      ESP Fit Center   89 is at  -1.770474 -3.453089  0.323636
      ESP Fit Center   90 is at  -1.355679 -3.406353  0.323636
      ESP Fit Center   91 is at  -0.961684 -3.268488  0.323636
      ESP Fit Center   92 is at  -0.608245 -3.046408  0.323636
      ESP Fit Center   93 is at  -0.313085 -2.751248  0.323636
      ESP Fit Center   94 is at  -3.708310 -1.799771 -0.077161
      ESP Fit Center   95 is at  -3.617699 -2.211421 -0.077161
      ESP Fit Center   96 is at  -3.440714 -2.593968 -0.077161
      ESP Fit Center   97 is at  -3.185630 -2.929526 -0.077161
      ESP Fit Center   98 is at  -2.864375 -3.202402 -0.077161
      ESP Fit Center   99 is at  -2.491970 -3.399838 -0.077161
      ESP Fit Center  100 is at  -2.085829 -3.512603 -0.077161
      ESP Fit Center  101 is at  -1.664943 -3.535423 -0.077161
      ESP Fit Center  102 is at  -1.248991 -3.467231 -0.077161
      ESP Fit Center  103 is at  -0.857423 -3.311216 -0.077161
      ESP Fit Center  104 is at  -0.508548 -3.074673 -0.077161
      ESP Fit Center  105 is at  -0.218679 -2.768662 -0.077161
      ESP Fit Center  106 is at  -0.001371 -2.407493 -0.077161
      ESP Fit Center  107 is at  -3.708310 -1.799771 -0.486913
      ESP Fit Center  108 is at  -3.617699 -2.211421 -0.486913
      ESP Fit Center  109 is at  -3.440714 -2.593968 -0.486913
      ESP Fit Center  110 is at  -3.185630 -2.929526 -0.486913
      ESP Fit Center  111 is at  -2.864375 -3.202402 -0.486913
      ESP Fit Center  112 is at  -2.491970 -3.399838 -0.486913
      ESP Fit Center  113 is at  -2.085829 -3.512603 -0.486913
      ESP Fit Center  114 is at  -1.664943 -3.535423 -0.486913
      ESP Fit Center  115 is at  -1.248991 -3.467231 -0.486913
      ESP Fit Center  116 is at  -0.857423 -3.311216 -0.486913
      ESP Fit Center  117 is at  -0.508548 -3.074673 -0.486913
      ESP Fit Center  118 is at  -0.218679 -2.768662 -0.486913
      ESP Fit Center  119 is at  -0.001371 -2.407493 -0.486913
      ESP Fit Center  120 is at  -3.634545 -1.589018 -0.887710
      ESP Fit Center  121 is at  -3.587808 -2.003813 -0.887710
      ESP Fit Center  122 is at  -3.449944 -2.397808 -0.887710
      ESP Fit Center  123 is at  -3.227863 -2.751248 -0.887710
      ESP Fit Center  124 is at  -2.932703 -3.046408 -0.887710
      ESP Fit Center  125 is at  -2.579264 -3.268488 -0.887710
      ESP Fit Center  126 is at  -2.185269 -3.406353 -0.887710
      ESP Fit Center  127 is at  -1.770474 -3.453089 -0.887710
      ESP Fit Center  128 is at  -1.355679 -3.406353 -0.887710
      ESP Fit Center  129 is at  -0.961684 -3.268488 -0.887710
      ESP Fit Center  130 is at  -0.608245 -3.046408 -0.887710
      ESP Fit Center  131 is at  -0.313085 -2.751248 -0.887710
      ESP Fit Center  132 is at  -0.091004 -2.397808 -0.887710
      ESP Fit Center  133 is at  -3.454499 -1.376277 -1.262037
      ESP Fit Center  134 is at  -3.454499 -1.801760 -1.262037
      ESP Fit Center  135 is at  -3.348686 -2.213877 -1.262037
      ESP Fit Center  136 is at  -3.143707 -2.586731 -1.262037
      ESP Fit Center  137 is at  -2.852444 -2.896895 -1.262037
      ESP Fit Center  138 is at  -2.493196 -3.124881 -1.262037
      ESP Fit Center  139 is at  -2.088537 -3.256362 -1.262037
      ESP Fit Center  140 is at  -1.663893 -3.283079 -1.262037
      ESP Fit Center  141 is at  -1.245945 -3.203351 -1.262037
      ESP Fit Center  142 is at  -0.860956 -3.022189 -1.262037
      ESP Fit Center  143 is at  -0.533115 -2.750975 -1.262037
      ESP Fit Center  144 is at  -0.283022 -2.406752 -1.262037
      ESP Fit Center  145 is at  -0.126391 -2.011147 -1.262037
      ESP Fit Center  146 is at  -3.168037 -1.178657 -1.593533
      ESP Fit Center  147 is at  -3.227038 -1.589018 -1.593533
      ESP Fit Center  148 is at  -3.168037 -1.999380 -1.593533
      ESP Fit Center  149 is at  -2.995813 -2.376496 -1.593533
      ESP Fit Center  150 is at  -2.724320 -2.689816 -1.593533
      ESP Fit Center  151 is at  -2.375552 -2.913956 -1.593533
      ESP Fit Center  152 is at  -1.977764 -3.030757 -1.593533
      ESP Fit Center  153 is at  -1.563183 -3.030757 -1.593533
      ESP Fit Center  154 is at  -1.165395 -2.913956 -1.593533
      ESP Fit Center  155 is at  -0.816627 -2.689816 -1.593533
      ESP Fit Center  156 is at  -0.545134 -2.376496 -1.593533
      ESP Fit Center  157 is at  -0.372911 -1.999380 -1.593533
      ESP Fit Center  158 is at  -0.618415 -1.589018 -1.867710
      ESP Fit Center  159 is at  -2.902917 -1.377328 -1.867710
      ESP Fit Center  160 is at  -2.902917 -1.800709 -1.867710
      ESP Fit Center  161 is at  -2.749974 -2.195499 -1.867710
      ESP Fit Center  162 is at  -2.464745 -2.508381 -1.867710
      ESP Fit Center  163 is at  -2.085750 -2.697098 -1.867710
      ESP Fit Center  164 is at  -1.664175 -2.736163 -1.867710
      ESP Fit Center  165 is at  -1.256957 -2.620299 -1.867710
      ESP Fit Center  166 is at  -0.919092 -2.365156 -1.867710
      ESP Fit Center  167 is at  -0.696211 -2.005190 -1.867710
      ESP Fit Center  168 is at  -0.973270 -1.589018 -2.072586
      ESP Fit Center  169 is at  -1.080075 -1.190417 -2.072586
      ESP Fit Center  170 is at  -1.371872 -0.898620 -2.072586
      ESP Fit Center  171 is at  -2.460873 -1.190417 -2.072586
      ESP Fit Center  172 is at  -2.567678 -1.589018 -2.072586
      ESP Fit Center  173 is at  -2.460873 -1.987620 -2.072586
      ESP Fit Center  174 is at  -2.169076 -2.279417 -2.072586
      ESP Fit Center  175 is at  -1.770474 -2.386222 -2.072586
      ESP Fit Center  176 is at  -1.371872 -2.279417 -2.072586
      ESP Fit Center  177 is at  -1.080075 -1.987620 -2.072586
      ESP Fit Center  178 is at  -1.362967 -1.589018 -2.199206
      ESP Fit Center  179 is at  -1.566720 -1.236107 -2.199206
      ESP Fit Center  180 is at  -1.974227 -1.236107 -2.199206
      ESP Fit Center  181 is at  -2.177981 -1.589018 -2.199206
      ESP Fit Center  182 is at  -1.974227 -1.941930 -2.199206
      ESP Fit Center  183 is at  -1.566720 -1.941930 -2.199206
      ESP Fit Center  184 is at  -1.770474 -1.589018 -2.242037
      ESP Fit Center  185 is at  -3.043291  0.034291  2.496112
      ESP Fit Center  186 is at  -2.635784  0.034291  2.453281
      ESP Fit Center  187 is at  -2.839537  0.387202  2.453281
      ESP Fit Center  188 is at  -3.247044  0.387202  2.453281
      ESP Fit Center  189 is at  -3.450798  0.034291  2.453281
      ESP Fit Center  190 is at  -3.247044 -0.318620  2.453281
      ESP Fit Center  191 is at  -2.839537 -0.318620  2.453281
      ESP Fit Center  192 is at  -2.246087  0.034291  2.326661
      ESP Fit Center  193 is at  -2.352892  0.432893  2.326661
      ESP Fit Center  194 is at  -2.644689  0.724690  2.326661
      ESP Fit Center  195 is at  -3.043291  0.831495  2.326661
      ESP Fit Center  196 is at  -3.441893  0.724690  2.326661
      ESP Fit Center  197 is at  -3.733690  0.432893  2.326661
      ESP Fit Center  198 is at  -3.840495  0.034291  2.326661
      ESP Fit Center  199 is at  -3.733690 -0.364311  2.326661
      ESP Fit Center  200 is at  -3.441893 -0.656108  2.326661
      ESP Fit Center  201 is at  -3.043291 -0.762913  2.326661
      ESP Fit Center  202 is at  -2.644689 -0.656108  2.326661
      ESP Fit Center  203 is at  -2.352892 -0.364311  2.326661
      ESP Fit Center  204 is at  -1.891232  0.034291  2.121785
      ESP Fit Center  205 is at  -1.969028  0.450463  2.121785
      ESP Fit Center  206 is at  -2.191909  0.810428  2.121785
      ESP Fit Center  207 is at  -2.529774  1.065572  2.121785
      ESP Fit Center  208 is at  -2.936992  1.181436  2.121785
      ESP Fit Center  209 is at  -3.358567  1.142371  2.121785
      ESP Fit Center  210 is at  -3.737561  0.953654  2.121785
      ESP Fit Center  211 is at  -4.022791  0.640772  2.121785
      ESP Fit Center  212 is at  -4.175734  0.245981  2.121785
      ESP Fit Center  213 is at  -4.175734 -0.177399  2.121785
      ESP Fit Center  214 is at  -4.022791 -0.572190  2.121785
      ESP Fit Center  215 is at  -3.737561 -0.885072  2.121785
      ESP Fit Center  216 is at  -3.358567 -1.073789  2.121785
      ESP Fit Center  217 is at  -2.936992 -1.112853  2.121785
      ESP Fit Center  218 is at  -2.529774 -0.996990  2.121785
      ESP Fit Center  219 is at  -2.191909 -0.741846  2.121785
      ESP Fit Center  220 is at  -1.969028 -0.381881  2.121785
      ESP Fit Center  221 is at  -1.645728  0.444653  1.847608
      ESP Fit Center  222 is at  -1.817951  0.821769  1.847608
      ESP Fit Center  223 is at  -2.089444  1.135089  1.847608
      ESP Fit Center  224 is at  -2.438212  1.359228  1.847608
      ESP Fit Center  225 is at  -2.836000  1.476029  1.847608
      ESP Fit Center  226 is at  -3.250581  1.476029  1.847608
      ESP Fit Center  227 is at  -3.648369  1.359228  1.847608
      ESP Fit Center  228 is at  -3.997137  1.135089  1.847608
      ESP Fit Center  229 is at  -4.268630  0.821769  1.847608
      ESP Fit Center  230 is at  -4.440854  0.444653  1.847608
      ESP Fit Center  231 is at  -4.499855  0.034291  1.847608
      ESP Fit Center  232 is at  -4.440854 -0.376070  1.847608
      ESP Fit Center  233 is at  -4.268630 -0.753187  1.847608
      ESP Fit Center  234 is at  -3.997137 -1.066506  1.847608
      ESP Fit Center  235 is at  -3.648369 -1.290646  1.847608
      ESP Fit Center  236 is at  -3.250581 -1.407447  1.847608
      ESP Fit Center  237 is at  -2.836000 -1.407447  1.847608
      ESP Fit Center  238 is at  -2.438212 -1.290646  1.847608
      ESP Fit Center  239 is at  -3.361354  1.701635  1.516112
      ESP Fit Center  240 is at  -3.766013  1.570153  1.516112
      ESP Fit Center  241 is at  -4.125260  1.342168  1.516112
      ESP Fit Center  242 is at  -4.416524  1.032004  1.516112
      ESP Fit Center  243 is at  -4.621502  0.659149  1.516112
      ESP Fit Center  244 is at  -4.727316  0.247033  1.516112
      ESP Fit Center  245 is at  -4.727316 -0.178451  1.516112
      ESP Fit Center  246 is at  -4.621502 -0.590567  1.516112
      ESP Fit Center  247 is at  -4.416524 -0.963421  1.516112
      ESP Fit Center  248 is at  -4.125260 -1.273586  1.516112
      ESP Fit Center  249 is at  -3.766013 -1.501571  1.516112
      ESP Fit Center  250 is at  -3.361354 -1.633053  1.516112
      ESP Fit Center  251 is at  -2.936710 -1.659769  1.516112
      ESP Fit Center  252 is at  -3.458086  1.851626  1.141785
      ESP Fit Center  253 is at  -3.852081  1.713761  1.141785
      ESP Fit Center  254 is at  -4.205520  1.491680  1.141785
      ESP Fit Center  255 is at  -4.500680  1.196520  1.141785
      ESP Fit Center  256 is at  -4.722760  0.843081  1.141785
      ESP Fit Center  257 is at  -4.860625  0.449086  1.141785
      ESP Fit Center  258 is at  -4.907362  0.034291  1.141785
      ESP Fit Center  259 is at  -4.860625 -0.380504  1.141785
      ESP Fit Center  260 is at  -4.722760 -0.774499  1.141785
      ESP Fit Center  261 is at  -4.500680 -1.127938  1.141785
      ESP Fit Center  262 is at  -4.205520 -1.423098  1.141785
      ESP Fit Center  263 is at  -3.852081 -1.645179  1.141785
      ESP Fit Center  264 is at  -3.458086 -1.783043  1.141785
      ESP Fit Center  265 is at  -3.764787  1.845111  0.740988
      ESP Fit Center  266 is at  -4.137192  1.647675  0.740988
      ESP Fit Center  267 is at  -4.458447  1.374798  0.740988
      ESP Fit Center  268 is at  -4.713531  1.039241  0.740988
      ESP Fit Center  269 is at  -4.890516  0.656694  0.740988
      ESP Fit Center  270 is at  -4.981127  0.245044  0.740988
      ESP Fit Center  271 is at  -4.981127 -0.176461  0.740988
      ESP Fit Center  272 is at  -4.890516 -0.588111  0.740988
      ESP Fit Center  273 is at  -4.713531 -0.970659  0.740988
      ESP Fit Center  274 is at  -4.458447 -1.306216  0.740988
      ESP Fit Center  275 is at  -4.137192 -1.579092  0.740988
      ESP Fit Center  276 is at  -3.764787 -1.776529  0.740988
      ESP Fit Center  277 is at  -3.764787  1.845111  0.331236
      ESP Fit Center  278 is at  -4.137192  1.647675  0.331236
      ESP Fit Center  279 is at  -4.458447  1.374798  0.331236
      ESP Fit Center  280 is at  -4.713531  1.039241  0.331236
      ESP Fit Center  281 is at  -4.890516  0.656694  0.331236
      ESP Fit Center  282 is at  -4.981127  0.245044  0.331236
      ESP Fit Center  283 is at  -4.981127 -0.176461  0.331236
      ESP Fit Center  284 is at  -4.890516 -0.588111  0.331236
      ESP Fit Center  285 is at  -4.713531 -0.970659  0.331236
      ESP Fit Center  286 is at  -4.458447 -1.306216  0.331236
      ESP Fit Center  287 is at  -4.137192 -1.579092  0.331236
      ESP Fit Center  288 is at  -3.764787 -1.776529  0.331236
      ESP Fit Center  289 is at  -3.852081  1.713761 -0.069561
      ESP Fit Center  290 is at  -4.205520  1.491680 -0.069561
      ESP Fit Center  291 is at  -4.500680  1.196520 -0.069561
      ESP Fit Center  292 is at  -4.722760  0.843081 -0.069561
      ESP Fit Center  293 is at  -4.860625  0.449086 -0.069561
      ESP Fit Center  294 is at  -4.907362  0.034291 -0.069561
      ESP Fit Center  295 is at  -4.860625 -0.380504 -0.069561
      ESP Fit Center  296 is at  -4.722760 -0.774499 -0.069561
      ESP Fit Center  297 is at  -4.500680 -1.127938 -0.069561
      ESP Fit Center  298 is at  -4.205520 -1.423098 -0.069561
      ESP Fit Center  299 is at  -3.852081 -1.645179 -0.069561
      ESP Fit Center  300 is at  -3.361354  1.701635 -0.443888
      ESP Fit Center  301 is at  -3.766013  1.570153 -0.443888
      ESP Fit Center  302 is at  -4.125260  1.342168 -0.443888
      ESP Fit Center  303 is at  -4.416524  1.032004 -0.443888
      ESP Fit Center  304 is at  -4.621502  0.659149 -0.443888
      ESP Fit Center  305 is at  -4.727316  0.247033 -0.443888
      ESP Fit Center  306 is at  -4.727316 -0.178451 -0.443888
      ESP Fit Center  307 is at  -4.621502 -0.590567 -0.443888
      ESP Fit Center  308 is at  -4.416524 -0.963421 -0.443888
      ESP Fit Center  309 is at  -4.125260 -1.273586 -0.443888
      ESP Fit Center  310 is at  -3.766013 -1.501571 -0.443888
      ESP Fit Center  311 is at  -3.250581  1.476029 -0.775384
      ESP Fit Center  312 is at  -3.648369  1.359228 -0.775384
      ESP Fit Center  313 is at  -3.997137  1.135089 -0.775384
      ESP Fit Center  314 is at  -4.268630  0.821769 -0.775384
      ESP Fit Center  315 is at  -4.440854  0.444653 -0.775384
      ESP Fit Center  316 is at  -4.499855  0.034291 -0.775384
      ESP Fit Center  317 is at  -4.440854 -0.376070 -0.775384
      ESP Fit Center  318 is at  -4.268630 -0.753187 -0.775384
      ESP Fit Center  319 is at  -3.997137 -1.066506 -0.775384
      ESP Fit Center  320 is at  -2.936992  1.181436 -1.049561
      ESP Fit Center  321 is at  -3.358567  1.142371 -1.049561
      ESP Fit Center  322 is at  -3.737561  0.953654 -1.049561
      ESP Fit Center  323 is at  -4.022791  0.640772 -1.049561
      ESP Fit Center  324 is at  -4.175734  0.245981 -1.049561
      ESP Fit Center  325 is at  -4.175734 -0.177399 -1.049561
      ESP Fit Center  326 is at  -4.022791 -0.572190 -1.049561
      ESP Fit Center  327 is at  -3.737561 -0.885072 -1.049561
      ESP Fit Center  328 is at  -3.441893  0.724690 -1.254437
      ESP Fit Center  329 is at  -3.733690  0.432893 -1.254437
      ESP Fit Center  330 is at  -3.840495  0.034291 -1.254437
      ESP Fit Center  331 is at  -3.733690 -0.364311 -1.254437
      ESP Fit Center  332 is at  -0.878349  0.556882  1.630047
      ESP Fit Center  333 is at  -0.673504  0.202080  1.589697
      ESP Fit Center  334 is at  -2.573697  0.974748 -1.636650
      ESP Fit Center  335 is at  -2.303123  0.975234 -1.954877
      ESP Fit Center  336 is at  -2.363273  0.556882 -1.954877
      ESP Fit Center  337 is at  -0.358307  1.601267 -2.216039
      ESP Fit Center  338 is at  -1.870295  1.171069 -2.216039
      ESP Fit Center  339 is at  -2.025181  0.771262 -2.216039
      ESP Fit Center  340 is at  -2.025181  0.342502 -2.216039
      ESP Fit Center  341 is at  -1.870295 -0.057305 -2.216039
      ESP Fit Center  342 is at  -1.581441 -0.374163 -2.216039
      ESP Fit Center  343 is at  -1.197630 -0.565277 -2.216039
      ESP Fit Center  344 is at  -0.878349  1.360517 -2.410100
      ESP Fit Center  345 is at  -1.280166  1.252851 -2.410100
      ESP Fit Center  346 is at  -1.574317  0.958700 -2.410100
      ESP Fit Center  347 is at  -1.681984  0.556882 -2.410100
      ESP Fit Center  348 is at  -1.574317  0.155064 -2.410100
      ESP Fit Center  349 is at  -1.280166 -0.139086 -2.410100
      ESP Fit Center  350 is at  -1.083193  0.911684 -2.529602
      ESP Fit Center  351 is at  -1.288038  0.556882 -2.529602
      ESP Fit Center  352 is at  -1.083193  0.202080 -2.529602
      ESP Fit Center  353 is at  -1.044154  1.858678  1.865451
      ESP Fit Center  354 is at  -0.634465  1.858678  1.825100
      ESP Fit Center  355 is at  -0.839309  2.213480  1.825100
      ESP Fit Center  356 is at  -1.248999  1.503877  1.825100
      ESP Fit Center  357 is at  -0.839309  1.503877  1.825100
      ESP Fit Center  358 is at  -0.240519  1.858678  1.705598
      ESP Fit Center  359 is at  -0.348186  2.260496  1.705598
      ESP Fit Center  360 is at  -0.642337  2.554647  1.705598
      ESP Fit Center  361 is at  -1.044154  2.662314  1.705598
      ESP Fit Center  362 is at  -1.445972  1.162710  1.705598
      ESP Fit Center  363 is at  -1.044154  1.055043  1.705598
      ESP Fit Center  364 is at  -0.642337  1.162710  1.705598
      ESP Fit Center  365 is at  -0.348186  1.456861  1.705598
      ESP Fit Center  366 is at   0.043759  2.280138  1.511537
      ESP Fit Center  367 is at  -0.181954  2.644677  1.511537
      ESP Fit Center  368 is at  -0.524113  2.903063  1.511537
      ESP Fit Center  369 is at  -0.936505  3.020399  1.511537
      ESP Fit Center  370 is at   0.205043  2.661489  1.250375
      ESP Fit Center  371 is at  -0.071736  2.980909  1.250375
      ESP Fit Center  372 is at  -0.427295  3.209413  1.250375
      ESP Fit Center  373 is at  -0.832828  3.328488  1.250375
      ESP Fit Center  374 is at   0.262810  3.016548  0.932148
      ESP Fit Center  375 is at  -0.052264  3.295679  0.932148
      ESP Fit Center  376 is at  -0.424984  3.491297  0.932148
      ESP Fit Center  377 is at  -0.833687  3.592034  0.932148
      ESP Fit Center  378 is at  -0.939117  3.795980  0.569086
      ESP Fit Center  379 is at  -1.358035  3.773267  0.569086
      ESP Fit Center  380 is at  -1.148474  3.915684  0.175140
      ESP Fit Center  381 is at  -1.560411  3.852578  0.175140
      ESP Fit Center  382 is at  -1.453844  3.918328 -0.234549
      ESP Fit Center  383 is at  -1.847790  3.798825 -0.234549
      ESP Fit Center  384 is at  -1.560411  3.852578 -0.644239
      ESP Fit Center  385 is at  -1.951212  3.707841 -0.644239
      ESP Fit Center  386 is at  -1.762277  3.661030 -1.038184
      ESP Fit Center  387 is at  -2.132940  3.464517 -1.038184
      ESP Fit Center  388 is at  -2.452692  3.192916 -1.038184
      ESP Fit Center  389 is at  -2.706583  2.858929 -1.038184
      ESP Fit Center  390 is at  -2.882741  2.478170 -1.038184
      ESP Fit Center  391 is at  -2.972928  2.068445 -1.038184
      ESP Fit Center  392 is at  -2.972928  1.648912 -1.038184
      ESP Fit Center  393 is at  -2.882741  1.239187 -1.038184
      ESP Fit Center  394 is at  -1.663325  3.491297 -1.401247
      ESP Fit Center  395 is at  -2.036044  3.295679 -1.401247
      ESP Fit Center  396 is at  -2.351119  3.016548 -1.401247
      ESP Fit Center  397 is at  -2.590237  2.670125 -1.401247
      ESP Fit Center  398 is at  -2.739502  2.276544 -1.401247
      ESP Fit Center  399 is at  -2.790241  1.858678 -1.401247
      ESP Fit Center  400 is at  -2.739502  1.440813 -1.401247
      ESP Fit Center  401 is at  -1.661014  3.209413 -1.719473
      ESP Fit Center  402 is at  -2.016573  2.980909 -1.719473
      ESP Fit Center  403 is at  -2.293352  2.661489 -1.719473
      ESP Fit Center  404 is at  -2.468929  2.277030 -1.719473
      ESP Fit Center  405 is at  -2.529079  1.858678 -1.719473
      ESP Fit Center  406 is at  -2.468929  1.440327 -1.719473
      ESP Fit Center  407 is at  -1.363436  2.980838 -1.980635
      ESP Fit Center  408 is at  -1.747247  2.789723 -1.980635
      ESP Fit Center  409 is at  -2.036101  2.472866 -1.980635
      ESP Fit Center  410 is at  -2.190987  2.073059 -1.980635
      ESP Fit Center  411 is at  -2.190987  1.644298 -1.980635
      ESP Fit Center  412 is at  -0.240519  1.858678 -2.174696
      ESP Fit Center  413 is at  -1.044154  2.662314 -2.174696
      ESP Fit Center  414 is at  -1.445972  2.554647 -2.174696
      ESP Fit Center  415 is at  -1.740123  2.260496 -2.174696
      ESP Fit Center  416 is at  -1.847790  1.858678 -2.174696
      ESP Fit Center  417 is at  -1.740123  1.456861 -2.174696
      ESP Fit Center  418 is at  -0.634465  1.858678 -2.294198
      ESP Fit Center  419 is at  -0.839309  2.213480 -2.294198
      ESP Fit Center  420 is at  -1.248999  2.213480 -2.294198
      ESP Fit Center  421 is at  -1.453844  1.858678 -2.294198
      ESP Fit Center  422 is at  -1.044154  1.858678 -2.334549
      ESP Fit Center  423 is at  -0.063120 -1.809624 -1.285112
      ESP Fit Center  424 is at   1.061025  1.793430 -1.685909
      ESP Fit Center  425 is at  -0.162559 -1.703374 -1.685909
      ESP Fit Center  426 is at   0.252235 -1.750110 -1.685909
      ESP Fit Center  427 is at   1.489594  1.275917 -2.060236
      ESP Fit Center  428 is at   1.161753  1.547131 -2.060236
      ESP Fit Center  429 is at   0.776764  1.728293 -2.060236
      ESP Fit Center  430 is at   0.358817  1.808021 -2.060236
      ESP Fit Center  431 is at  -1.120998 -0.883752 -2.060236
      ESP Fit Center  432 is at  -0.829734 -1.193916 -2.060236
      ESP Fit Center  433 is at  -0.470487 -1.421902 -2.060236
      ESP Fit Center  434 is at  -0.065828 -1.553384 -2.060236
      ESP Fit Center  435 is at   0.358817 -1.580100 -2.060236
      ESP Fit Center  436 is at   0.776764 -1.500372 -2.060236
      ESP Fit Center  437 is at   1.649798  0.524322 -2.391732
      ESP Fit Center  438 is at   1.477575  0.901438 -2.391732
      ESP Fit Center  439 is at   1.206082  1.214758 -2.391732
      ESP Fit Center  440 is at   0.857314  1.438897 -2.391732
      ESP Fit Center  441 is at   0.459526  1.555698 -2.391732
      ESP Fit Center  442 is at   0.044945  1.555698 -2.391732
      ESP Fit Center  443 is at  -0.352843  1.438897 -2.391732
      ESP Fit Center  444 is at  -1.145327 -0.296401 -2.391732
      ESP Fit Center  445 is at  -0.973104 -0.673518 -2.391732
      ESP Fit Center  446 is at  -0.701611 -0.986837 -2.391732
      ESP Fit Center  447 is at  -0.352843 -1.210977 -2.391732
      ESP Fit Center  448 is at   0.044945 -1.327778 -2.391732
      ESP Fit Center  449 is at   0.459526 -1.327778 -2.391732
      ESP Fit Center  450 is at   0.857314 -1.210977 -2.391732
      ESP Fit Center  451 is at   1.206082 -0.986837 -2.391732
      ESP Fit Center  452 is at   1.477575 -0.673518 -2.391732
      ESP Fit Center  453 is at   1.404294  0.113960 -2.665909
      ESP Fit Center  454 is at   1.326498  0.530132 -2.665909
      ESP Fit Center  455 is at   1.103617  0.890098 -2.665909
      ESP Fit Center  456 is at   0.765752  1.145241 -2.665909
      ESP Fit Center  457 is at   0.358534  1.261105 -2.665909
      ESP Fit Center  458 is at  -0.063041  1.222040 -2.665909
      ESP Fit Center  459 is at  -0.442035  1.033323 -2.665909
      ESP Fit Center  460 is at  -0.727265  0.720441 -2.665909
      ESP Fit Center  461 is at  -0.880208  0.325651 -2.665909
      ESP Fit Center  462 is at  -0.880208 -0.097730 -2.665909
      ESP Fit Center  463 is at  -0.727265 -0.492521 -2.665909
      ESP Fit Center  464 is at  -0.442035 -0.805403 -2.665909
      ESP Fit Center  465 is at  -0.063041 -0.994120 -2.665909
      ESP Fit Center  466 is at   0.358534 -1.033184 -2.665909
      ESP Fit Center  467 is at   0.765752 -0.917321 -2.665909
      ESP Fit Center  468 is at   1.103617 -0.662177 -2.665909
      ESP Fit Center  469 is at   1.326498 -0.302211 -2.665909
      ESP Fit Center  470 is at   1.049439  0.113960 -2.870785
      ESP Fit Center  471 is at   0.942634  0.512562 -2.870785
      ESP Fit Center  472 is at   0.650837  0.804359 -2.870785
      ESP Fit Center  473 is at   0.252235  0.911164 -2.870785
      ESP Fit Center  474 is at  -0.146367  0.804359 -2.870785
      ESP Fit Center  475 is at  -0.438163  0.512562 -2.870785
      ESP Fit Center  476 is at  -0.544969  0.113960 -2.870785
      ESP Fit Center  477 is at  -0.438163 -0.284642 -2.870785
      ESP Fit Center  478 is at  -0.146367 -0.576438 -2.870785
      ESP Fit Center  479 is at   0.252235 -0.683243 -2.870785
      ESP Fit Center  480 is at   0.650837 -0.576438 -2.870785
      ESP Fit Center  481 is at   0.942634 -0.284642 -2.870785
      ESP Fit Center  482 is at   0.659742  0.113960 -2.997405
      ESP Fit Center  483 is at   0.455989  0.466872 -2.997405
      ESP Fit Center  484 is at   0.048482  0.466872 -2.997405
      ESP Fit Center  485 is at  -0.155272  0.113960 -2.997405
      ESP Fit Center  486 is at   0.048482 -0.238951 -2.997405
      ESP Fit Center  487 is at   0.455989 -0.238951 -2.997405
      ESP Fit Center  488 is at   0.252235  0.113960 -3.040236
      ESP Fit Center  489 is at   1.763853 -0.107209  2.562081
      ESP Fit Center  490 is at   1.556463  0.252000  2.562081
      ESP Fit Center  491 is at   1.141685  0.252000  2.562081
      ESP Fit Center  492 is at   2.167317 -0.107209  2.459910
      ESP Fit Center  493 is at   2.057693  0.301912  2.459910
      ESP Fit Center  494 is at   0.939953  0.601410  2.459910
      ESP Fit Center  495 is at   2.548462 -0.107209  2.292724
      ESP Fit Center  496 is at   2.476130  0.303006  2.292724
      ESP Fit Center  497 is at   0.430290  0.663742  2.292724
      ESP Fit Center  498 is at   2.476130 -0.517424  2.292724
      ESP Fit Center  499 is at   2.896890 -0.107209  2.065084
      ESP Fit Center  500 is at   2.839493  0.310387  2.065084
      ESP Fit Center  501 is at   0.148416  0.869599  2.065084
      ESP Fit Center  502 is at  -0.070600  0.509443  2.065084
      ESP Fit Center  503 is at   2.671558 -0.911429  2.065084
      ESP Fit Center  504 is at   2.839493 -0.524805  2.065084
      ESP Fit Center  505 is at   3.203098 -0.107209  1.783200
      ESP Fit Center  506 is at   3.153123  0.320358  1.783200
      ESP Fit Center  507 is at  -0.199940  0.911594  1.783200
      ESP Fit Center  508 is at  -0.393139  0.526905  1.783200
      ESP Fit Center  509 is at   2.769339 -1.298953  1.783200
      ESP Fit Center  510 is at   3.005891 -0.939294  1.783200
      ESP Fit Center  511 is at   3.153123 -0.534776  1.783200
      ESP Fit Center  512 is at   3.458734 -0.107209  1.454760
      ESP Fit Center  513 is at   3.415549  0.317462  1.454760
      ESP Fit Center  514 is at   2.802560 -1.636275  1.454760
      ESP Fit Center  515 is at   3.080606 -1.312390  1.454760
      ESP Fit Center  516 is at   3.287762 -0.939166  1.454760
      ESP Fit Center  517 is at   3.415549 -0.531880  1.454760
      ESP Fit Center  518 is at   3.656823 -0.107209  1.088723
      ESP Fit Center  519 is at   3.617529  0.316839  1.088723
      ESP Fit Center  520 is at   2.739804 -1.948832  1.088723
      ESP Fit Center  521 is at   3.754850  0.316994  0.695074
      ESP Fit Center  522 is at   3.644639  0.728308  0.695074
      ESP Fit Center  523 is at   2.184591 -2.402774  0.695074
      ESP Fit Center  524 is at   3.717010  0.729436  0.284550
      ESP Fit Center  525 is at   1.878173 -2.562234  0.284550
      ESP Fit Center  526 is at   3.541556  1.117585 -0.131650
      ESP Fit Center  527 is at   1.030083 -2.598261 -0.131650
      ESP Fit Center  528 is at   1.455661 -2.616339 -0.131650
      ESP Fit Center  529 is at   1.878173 -2.562234 -0.131650
      ESP Fit Center  530 is at   3.464678  1.114235 -0.542173
      ESP Fit Center  531 is at   3.220435  1.463050 -0.542173
      ESP Fit Center  532 is at   0.127630 -2.222813 -0.542173
      ESP Fit Center  533 is at   0.513557 -2.402774 -0.542173
      ESP Fit Center  534 is at   0.924871 -2.512985 -0.542173
      ESP Fit Center  535 is at   1.349074 -2.550098 -0.542173
      ESP Fit Center  536 is at   1.773277 -2.512985 -0.542173
      ESP Fit Center  537 is at   3.311162  1.107664 -0.935822
      ESP Fit Center  538 is at   3.054521  1.447511 -0.935822
      ESP Fit Center  539 is at   2.739804  1.734414 -0.935822
      ESP Fit Center  540 is at   0.320422 -2.173021 -0.935822
      ESP Fit Center  541 is at   0.717529 -2.326861 -0.935822
      ESP Fit Center  542 is at   1.136142 -2.405113 -0.935822
      ESP Fit Center  543 is at   1.562006 -2.405113 -0.935822
      ESP Fit Center  544 is at   3.080606  1.097972 -1.301859
      ESP Fit Center  545 is at   2.802560  1.421857 -1.301859
      ESP Fit Center  546 is at   2.465008  1.683141 -1.301859
      ESP Fit Center  547 is at   2.081770  1.871129 -1.301859
      ESP Fit Center  548 is at   1.668535  1.978123 -1.301859
      ESP Fit Center  549 is at   1.242222  1.999743 -1.301859
      ESP Fit Center  550 is at   0.419992 -2.001271 -1.301859
      ESP Fit Center  551 is at   0.820283 -2.149522 -1.301859
      ESP Fit Center  552 is at   1.242222 -2.214161 -1.301859
      ESP Fit Center  553 is at   2.769339  1.084535 -1.630299
      ESP Fit Center  554 is at   2.456221  1.379947 -1.630299
      ESP Fit Center  555 is at   2.083416  1.595186 -1.630299
      ESP Fit Center  556 is at   1.671022  1.718648 -1.630299
      ESP Fit Center  557 is at   1.241272  1.743678 -1.630299
      ESP Fit Center  558 is at   0.817334 -1.883345 -1.630299
      ESP Fit Center  559 is at   1.241272 -1.958097 -1.630299
      ESP Fit Center  560 is at   2.671558  0.697011 -1.912184
      ESP Fit Center  561 is at   2.405541  1.023991 -1.912184
      ESP Fit Center  562 is at   2.061170  1.267074 -1.912184
      ESP Fit Center  563 is at   1.663987  1.408233 -1.912184
      ESP Fit Center  564 is at   0.830742 -1.565656 -1.912184
      ESP Fit Center  565 is at   1.243447 -1.651417 -1.912184
      ESP Fit Center  566 is at   2.267858  0.663742 -2.139824
      ESP Fit Center  567 is at   1.948768  0.931491 -2.139824
      ESP Fit Center  568 is at   1.140803 -1.288375 -2.139824
      ESP Fit Center  569 is at   1.557346 -1.288375 -2.139824
      ESP Fit Center  570 is at   2.057693  0.301912 -2.307009
      ESP Fit Center  571 is at   1.758196  0.601410 -2.307009
      ESP Fit Center  572 is at   1.758196 -0.815828 -2.307009
      ESP Fit Center  573 is at   1.763853 -0.107209 -2.409180
      ESP Fit Center  574 is at   0.803242 -1.020286  3.064413
      ESP Fit Center  575 is at   1.210749 -1.020286  3.021583
      ESP Fit Center  576 is at   1.006995 -0.667375  3.021583
      ESP Fit Center  577 is at   0.599489 -0.667375  3.021583
      ESP Fit Center  578 is at   0.395735 -1.020286  3.021583
      ESP Fit Center  579 is at   0.599489 -1.373197  3.021583
      ESP Fit Center  580 is at   1.006995 -1.373197  3.021583
      ESP Fit Center  581 is at   1.600446 -1.020286  2.894962
      ESP Fit Center  582 is at   1.493641 -0.621684  2.894962
      ESP Fit Center  583 is at   1.201844 -0.329887  2.894962
      ESP Fit Center  584 is at   0.803242 -0.223082  2.894962
      ESP Fit Center  585 is at   0.404640 -0.329887  2.894962
      ESP Fit Center  586 is at   0.112843 -0.621684  2.894962
      ESP Fit Center  587 is at   0.006038 -1.020286  2.894962
      ESP Fit Center  588 is at   0.112843 -1.418888  2.894962
      ESP Fit Center  589 is at   0.404640 -1.710685  2.894962
      ESP Fit Center  590 is at   0.803242 -1.817490  2.894962
      ESP Fit Center  591 is at   1.201844 -1.710685  2.894962
      ESP Fit Center  592 is at   1.493641 -1.418888  2.894962
      ESP Fit Center  593 is at   1.955301 -1.020286  2.690087
      ESP Fit Center  594 is at   1.877505 -0.604114  2.690087
      ESP Fit Center  595 is at   1.654624 -0.244149  2.690087
      ESP Fit Center  596 is at   1.316759  0.010995  2.690087
      ESP Fit Center  597 is at   0.909541  0.126859  2.690087
      ESP Fit Center  598 is at   0.487966  0.087794  2.690087
      ESP Fit Center  599 is at   0.108971 -0.100923  2.690087
      ESP Fit Center  600 is at  -0.176258 -0.413805  2.690087
      ESP Fit Center  601 is at  -0.329201 -0.808596  2.690087
      ESP Fit Center  602 is at  -0.329201 -1.231976  2.690087
      ESP Fit Center  603 is at  -0.176258 -1.626767  2.690087
      ESP Fit Center  604 is at   0.108971 -1.939649  2.690087
      ESP Fit Center  605 is at   0.487966 -2.128366  2.690087
      ESP Fit Center  606 is at   0.909541 -2.167431  2.690087
      ESP Fit Center  607 is at   1.316759 -2.051567  2.690087
      ESP Fit Center  608 is at   1.654624 -1.796423  2.690087
      ESP Fit Center  609 is at   1.877505 -1.436458  2.690087
      ESP Fit Center  610 is at   2.259806 -1.020286  2.415909
      ESP Fit Center  611 is at   2.200805 -0.609924  2.415909
      ESP Fit Center  612 is at   0.198163  0.304651  2.415909
      ESP Fit Center  613 is at  -0.150605  0.080512  2.415909
      ESP Fit Center  614 is at  -0.422098 -0.232808  2.415909
      ESP Fit Center  615 is at  -0.594321 -0.609924  2.415909
      ESP Fit Center  616 is at  -0.653322 -1.020286  2.415909
      ESP Fit Center  617 is at  -0.594321 -1.430647  2.415909
      ESP Fit Center  618 is at  -0.422098 -1.807764  2.415909
      ESP Fit Center  619 is at  -0.150605 -2.121083  2.415909
      ESP Fit Center  620 is at   0.198163 -2.345223  2.415909
      ESP Fit Center  621 is at   0.595951 -2.462024  2.415909
      ESP Fit Center  622 is at   1.010533 -2.462024  2.415909
      ESP Fit Center  623 is at   1.408320 -2.345223  2.415909
      ESP Fit Center  624 is at   1.757088 -2.121083  2.415909
      ESP Fit Center  625 is at   2.028581 -1.807764  2.415909
      ESP Fit Center  626 is at   2.200805 -1.430647  2.415909
      ESP Fit Center  627 is at  -0.278728  0.287591  2.084413
      ESP Fit Center  628 is at  -0.569991 -0.022573  2.084413
      ESP Fit Center  629 is at  -0.774970 -0.395428  2.084413
      ESP Fit Center  630 is at  -0.880783 -0.807544  2.084413
      ESP Fit Center  631 is at  -0.880783 -1.233028  2.084413
      ESP Fit Center  632 is at  -0.774970 -1.645144  2.084413
      ESP Fit Center  633 is at  -0.569991 -2.017998  2.084413
      ESP Fit Center  634 is at  -0.278728 -2.328163  2.084413
      ESP Fit Center  635 is at   0.080520 -2.556148  2.084413
      ESP Fit Center  636 is at   0.485179 -2.687630  2.084413
      ESP Fit Center  637 is at   0.909823 -2.714346  2.084413
      ESP Fit Center  638 is at   1.327770 -2.634619  2.084413
      ESP Fit Center  639 is at   1.712760 -2.453456  2.084413
      ESP Fit Center  640 is at   2.040600 -2.182243  2.084413
      ESP Fit Center  641 is at   2.290694 -1.838019  2.084413
      ESP Fit Center  642 is at   2.447325 -1.442415  2.084413
      ESP Fit Center  643 is at  -0.654147  0.141943  1.710087
      ESP Fit Center  644 is at  -1.014093 -1.435081  1.710087
      ESP Fit Center  645 is at  -0.876228 -1.829076  1.710087
      ESP Fit Center  646 is at  -0.654147 -2.182515  1.710087
      ESP Fit Center  647 is at  -0.358987 -2.477675  1.710087
      ESP Fit Center  648 is at  -0.005548 -2.699756  1.710087
      ESP Fit Center  649 is at   0.388447 -2.837621  1.710087
      ESP Fit Center  650 is at   0.803242 -2.884357  1.710087
      ESP Fit Center  651 is at   1.218037 -2.837621  1.710087
      ESP Fit Center  652 is at   1.612032 -2.699756  1.710087
      ESP Fit Center  653 is at   1.965471 -2.477675  1.710087
      ESP Fit Center  654 is at   2.260631 -2.182515  1.710087
      ESP Fit Center  655 is at   2.482712 -1.829076  1.710087
      ESP Fit Center  656 is at  -0.611914 -2.360793  1.309289
      ESP Fit Center  657 is at  -0.290659 -2.633669  1.309289
      ESP Fit Center  658 is at   0.081745 -2.831106  1.309289
      ESP Fit Center  659 is at   0.487886 -2.943870  1.309289
      ESP Fit Center  660 is at   0.908773 -2.966690  1.309289
      ESP Fit Center  661 is at   1.324725 -2.898498  1.309289
      ESP Fit Center  662 is at   1.716293 -2.742483  1.309289
      ESP Fit Center  663 is at   2.065168 -2.505940  1.309289
      ESP Fit Center  664 is at   2.355037 -2.199930  1.309289
      ESP Fit Center  665 is at  -0.290659 -2.633669  0.899537
      ESP Fit Center  666 is at   0.081745 -2.831106  0.899537
      ESP Fit Center  667 is at   0.487886 -2.943870  0.899537
      ESP Fit Center  668 is at   0.908773 -2.966690  0.899537
      ESP Fit Center  669 is at   1.324725 -2.898498  0.899537
      ESP Fit Center  670 is at   1.716293 -2.742483  0.899537
      ESP Fit Center  671 is at   2.065168 -2.505940  0.899537
      ESP Fit Center  672 is at  -0.005548 -2.699756  0.498740
      ESP Fit Center  673 is at   0.388447 -2.837621  0.498740
      ESP Fit Center  674 is at   0.803242 -2.884357  0.498740
      ESP Fit Center  675 is at   1.218037 -2.837621  0.498740
      ESP Fit Center  676 is at   1.612032 -2.699756  0.498740
      ESP Fit Center  677 is at   0.080520 -2.556148  0.124413
      ESP Fit Center  678 is at   0.485179 -2.687630  0.124413
      ESP Fit Center  679 is at   0.909823 -2.714346  0.124413
      ESP Fit Center  680 is at   1.327770 -2.634619  0.124413
      ESP Fit Center  681 is at   0.198163 -2.345223 -0.207083
      ESP Fit Center  682 is at   3.370445 -1.150267  1.230158
      ESP Fit Center  683 is at   3.832106 -0.751665  1.025282
      ESP Fit Center  684 is at   3.754310 -0.335493  1.025282
      ESP Fit Center  685 is at   3.193564 -1.782946  1.025282
      ESP Fit Center  686 is at   3.531429 -1.527802  1.025282
      ESP Fit Center  687 is at   3.754310 -1.167837  1.025282
      ESP Fit Center  688 is at   4.136611 -0.751665  0.751105
      ESP Fit Center  689 is at   4.077609 -0.341304  0.751105
      ESP Fit Center  690 is at   3.905386  0.035813  0.751105
      ESP Fit Center  691 is at   2.887337 -2.193403  0.751105
      ESP Fit Center  692 is at   3.285125 -2.076602  0.751105
      ESP Fit Center  693 is at   3.633893 -1.852463  0.751105
      ESP Fit Center  694 is at   3.905386 -1.539143  0.751105
      ESP Fit Center  695 is at   4.077609 -1.162027  0.751105
      ESP Fit Center  696 is at   4.377456 -0.751665  0.419609
      ESP Fit Center  697 is at   4.324129 -0.329536  0.419609
      ESP Fit Center  698 is at   4.167498  0.066068  0.419609
      ESP Fit Center  699 is at   3.917405  0.410292  0.419609
      ESP Fit Center  700 is at   2.361984 -2.419009  0.419609
      ESP Fit Center  701 is at   2.786628 -2.445725  0.419609
      ESP Fit Center  702 is at   3.204575 -2.365998  0.419609
      ESP Fit Center  703 is at   3.589564 -2.184836  0.419609
      ESP Fit Center  704 is at   3.917405 -1.913622  0.419609
      ESP Fit Center  705 is at   4.167498 -1.569398  0.419609
      ESP Fit Center  706 is at   4.324129 -1.173794  0.419609
      ESP Fit Center  707 is at   4.544117 -0.751665  0.045282
      ESP Fit Center  708 is at   4.497381 -0.336870  0.045282
      ESP Fit Center  709 is at   4.359516  0.057125  0.045282
      ESP Fit Center  710 is at   4.137436  0.410564  0.045282
      ESP Fit Center  711 is at   3.842276  0.705724  0.045282
      ESP Fit Center  712 is at   2.265252 -2.569000  0.045282
      ESP Fit Center  713 is at   2.680047 -2.615736  0.045282
      ESP Fit Center  714 is at   3.094841 -2.569000  0.045282
      ESP Fit Center  715 is at   3.488837 -2.431135  0.045282
      ESP Fit Center  716 is at   3.842276 -2.209054  0.045282
      ESP Fit Center  717 is at   4.137436 -1.913894  0.045282
      ESP Fit Center  718 is at   4.359516 -1.560455  0.045282
      ESP Fit Center  719 is at   4.497381 -1.166460  0.045282
      ESP Fit Center  720 is at   4.629310 -0.751665 -0.355515
      ESP Fit Center  721 is at   4.583737 -0.332631 -0.355515
      ESP Fit Center  722 is at   4.449150  0.066809 -0.355515
      ESP Fit Center  723 is at   4.231841  0.427979 -0.355515
      ESP Fit Center  724 is at   3.941973  0.733989 -0.355515
      ESP Fit Center  725 is at   3.593098  0.970532 -0.355515
      ESP Fit Center  726 is at   1.958550 -2.562485 -0.355515
      ESP Fit Center  727 is at   2.364691 -2.675249 -0.355515
      ESP Fit Center  728 is at   2.785578 -2.698069 -0.355515
      ESP Fit Center  729 is at   3.201530 -2.629877 -0.355515
      ESP Fit Center  730 is at   3.593098 -2.473862 -0.355515
      ESP Fit Center  731 is at   3.941973 -2.237319 -0.355515
      ESP Fit Center  732 is at   4.231841 -1.931309 -0.355515
      ESP Fit Center  733 is at   4.449150 -1.570139 -0.355515
      ESP Fit Center  734 is at   4.583737 -1.170699 -0.355515
      ESP Fit Center  735 is at   4.629310 -0.751665 -0.765267
      ESP Fit Center  736 is at   4.583737 -0.332631 -0.765267
      ESP Fit Center  737 is at   4.449150  0.066809 -0.765267
      ESP Fit Center  738 is at   4.231841  0.427979 -0.765267
[...]
 4742 Fit      -0.340528
 4743 Fit      -0.341560
 4744 Fit      -0.341673
 4745 Fit      -0.343434
 4746 Fit      -0.346633
 4747 Fit      -0.404061
 4748 Fit      -0.351733
 4749 Fit      -0.346646
 4750 Fit      -0.343214
 4751 Fit      -0.345569
 4752 Fit      -0.346501
 4753 Fit      -0.349148
 4754 Fit      -0.407113
 4755 Fit      -0.398177
 4756 Fit      -0.353595
 4757 Fit      -0.349207
 4758 Fit      -0.346475
 4759 Fit      -0.350147
 4760 Fit      -0.352003
 4761 Fit      -0.398990
 4762 Fit      -0.391725
 4763 Fit      -0.387012
 4764 Fit      -0.355421
 4765 Fit      -0.351978
 4766 Fit      -0.350150
 4767 Fit      -0.355086
 4768 Fit      -0.401373
 4769 Fit      -0.393589
 4770 Fit      -0.387092
 4771 Fit      -0.382447
 4772 Fit      -0.379543
 4773 Fit      -0.361095
 4774 Fit      -0.357489
 4775 Fit      -0.355008
 4776 Fit      -0.354118
 4777 Fit      -0.396512
 4778 Fit      -0.390518
 4779 Fit      -0.384557
 4780 Fit      -0.379628
 4781 Fit      -0.376103
 4782 Fit      -0.373766
 4783 Fit      -0.372038
 4784 Fit      -0.365284
 4785 Fit      -0.362304
 4786 Fit      -0.359699
 4787 Fit      -0.358133
 4788 Fit      -0.358165
 4789 Fit      -0.395363
 4790 Fit      -0.391968
 4791 Fit      -0.387620
 4792 Fit      -0.382648
 4793 Fit      -0.377882
 4794 Fit      -0.374005
 4795 Fit      -0.371184
 4796 Fit      -0.369114
 4797 Fit      -0.367304
 4798 Fit      -0.365408
 4799 Fit      -0.363445
 4800 Fit      -0.361820
 4801 Fit      -0.361165
 4802 Fit      -0.391468
 4803 Fit      -0.387778
 4804 Fit      -0.383629
 4805 Fit      -0.379089
 4806 Fit      -0.374724
 4807 Fit      -0.371143
 4808 Fit      -0.368513
 4809 Fit      -0.366585
 4810 Fit      -0.365077
 4811 Fit      -0.364059
 4812 Fit      -0.364027
 4813 Fit      -0.382380
 4814 Fit      -0.377763
 4815 Fit      -0.373455
 4816 Fit      -0.370055
 4817 Fit      -0.367800
 4818 Fit      -0.366640
 4819 Fit      -0.366768
 4820 Fit      -0.378701
 4821 Fit      -0.374085
 4822 Fit      -0.370953
 4823 Fit      -0.369929
 4824 Fit      -0.341095
 4825 Fit      -0.338020
 4826 Fit      -0.337473
 4827 Fit      -0.341192
 4828 Fit      -0.345414
 4829 Fit      -0.345750
 4830 Fit      -0.342111
 4831 Fit      -0.336096
 4832 Fit      -0.334285
 4833 Fit      -0.334853
 4834 Fit      -0.337766
 4835 Fit      -0.342372
 4836 Fit      -0.347353
 4837 Fit      -0.351095
 4838 Fit      -0.352512
 4839 Fit      -0.351489
 4840 Fit      -0.348522
 4841 Fit      -0.344300
 4842 Fit      -0.339768
 4843 Fit      -0.335250
 4844 Fit      -0.333018
 4845 Fit      -0.332309
 4846 Fit      -0.333219
 4847 Fit      -0.335724
 4848 Fit      -0.339656
 4849 Fit      -0.344630
 4850 Fit      -0.349972
 4851 Fit      -0.354797
 4852 Fit      -0.358284
 4853 Fit      -0.359988
 4854 Fit      -0.359927
 4855 Fit      -0.358393
 4856 Fit      -0.355711
 4857 Fit      -0.352100
 4858 Fit      -0.347774
 4859 Fit      -0.343134
 4860 Fit      -0.338765
 4861 Fit      -0.335429
 4862 Fit      -0.332976
 4863 Fit      -0.331655
 4864 Fit      -0.331512
 4865 Fit      -0.332567
 4866 Fit      -0.334816
 4867 Fit      -0.338224
 4868 Fit      -0.342687
 4869 Fit      -0.347971
 4870 Fit      -0.353660
 4871 Fit      -0.359163
 4872 Fit      -0.363830
 4873 Fit      -0.367157
 4874 Fit      -0.368944
 4875 Fit      -0.369274
 4876 Fit      -0.368392
 4877 Fit      -0.366587
 4878 Fit      -0.364081
 4879 Fit      -0.360942
 4880 Fit      -0.357139
 4881 Fit      -0.352721
 4882 Fit      -0.347933
 4883 Fit      -0.343184
 4884 Fit      -0.338903
 4885 Fit      -0.336597
 4886 Fit      -0.333923
 4887 Fit      -0.332243
 4888 Fit      -0.331563
 4889 Fit      -0.331879
 4890 Fit      -0.333192
 4891 Fit      -0.335514
 4892 Fit      -0.338855
 4893 Fit      -0.343201
 4894 Fit      -0.348474
 4895 Fit      -0.354474
 4896 Fit      -0.360831
 4897 Fit      -0.367004
 4898 Fit      -0.372376
 4899 Fit      -0.376444
 4900 Fit      -0.378992
 4901 Fit      -0.380091
 4902 Fit      -0.379950
 4903 Fit      -0.378822
 4904 Fit      -0.376983
 4905 Fit      -0.374680
 4906 Fit      -0.371993
 4907 Fit      -0.368801
 4908 Fit      -0.364915
 4909 Fit      -0.360285
 4910 Fit      -0.355109
 4911 Fit      -0.349768
 4912 Fit      -0.344690
 4913 Fit      -0.340224
 4914 Fit      -0.338737
 4915 Fit      -0.335814
 4916 Fit      -0.333865
 4917 Fit      -0.332853
 4918 Fit      -0.332745
 4919 Fit      -0.333527
 4920 Fit      -0.335203
 4921 Fit      -0.337802
 4922 Fit      -0.341366
 4923 Fit      -0.345930
 4924 Fit      -0.351498
 4925 Fit      -0.357978
 4926 Fit      -0.365122
 4927 Fit      -0.372470
 4928 Fit      -0.379369
 4929 Fit      -0.385127
 4930 Fit      -0.389277
 4931 Fit      -0.391754
 4932 Fit      -0.392808
 4933 Fit      -0.359300
 4934 Fit      -0.353149
 4935 Fit      -0.347500
 4936 Fit      -0.342646
 4937 Fit      -0.341858
 4938 Fit      -0.338721
 4939 Fit      -0.336558
 4940 Fit      -0.335293
 4941 Fit      -0.334866
 4942 Fit      -0.335235
 4943 Fit      -0.336389
 4944 Fit      -0.338344
 4945 Fit      -0.341144
 4946 Fit      -0.344857
 4947 Fit      -0.349565
 4948 Fit      -0.355337
 4949 Fit      -0.362189
 4950 Fit      -0.370005
 4951 Fit      -0.378447
 4952 Fit      -0.386894
 4953 Fit      -0.394501
 4954 Fit      -0.400457
 4955 Fit      -0.357561
 4956 Fit      -0.351292
 4957 Fit      -0.346038
 4958 Fit      -0.346001
 4959 Fit      -0.342606
 4960 Fit      -0.340252
 4961 Fit      -0.338819
 4962 Fit      -0.338209
 4963 Fit      -0.338356
 4964 Fit      -0.339227
 4965 Fit      -0.340822
 4966 Fit      -0.343177
 4967 Fit      -0.346360
 4968 Fit      -0.350476
 4969 Fit      -0.355655
 4970 Fit      -0.362042
 4971 Fit      -0.369741
 4972 Fit      -0.378734
 4973 Fit      -0.388735
 4974 Fit      -0.350572
 4975 Fit      -0.347482
 4976 Fit      -0.344938
 4977 Fit      -0.343421
 4978 Fit      -0.342784
 4979 Fit      -0.342925
 4980 Fit      -0.343788
 4981 Fit      -0.345363
 4982 Fit      -0.347682
 4983 Fit      -0.350825
 4984 Fit      -0.354922
 4985 Fit      -0.360163
 4986 Fit      -0.366796
 4987 Fit      -0.375100
 4988 Fit      -0.385297
 4989 Fit      -0.349445
 4990 Fit      -0.348832
 4991 Fit      -0.349005
 4992 Fit      -0.349880
 4993 Fit      -0.351430
 4994 Fit      -0.353677
 4995 Fit      -0.356699
 4996 Fit      -0.360640
 4997 Fit      -0.365726
 4998 Fit      -0.372293
 4999 Fit      -0.380802
 5000 Fit      -0.358088
 5001 Fit      -0.359755
 5002 Fit      -0.362076
 5003 Fit      -0.365133
 5004 Fit      -0.369088
 5005 Fit      -0.374218
 5006 Fit      -0.380969
 5007 Fit      -0.366420
 5008 Fit      -0.363821
 5009 Fit      -0.368787
 5010 Fit      -0.361499
 5011 Fit      -0.356727
 5012 Fit      -0.354483
 5013 Fit      -0.354819
 5014 Fit      -0.357885
 5015 Fit      -0.369101
 5016 Fit      -0.360582
 5017 Fit      -0.354153
 5018 Fit      -0.349741
 5019 Fit      -0.347284
 5020 Fit      -0.346755
 5021 Fit      -0.348180
 5022 Fit      -0.351667
 5023 Fit      -0.357461
 5024 Fit      -0.374586
 5025 Fit      -0.364232
 5026 Fit      -0.355934
 5027 Fit      -0.349550
 5028 Fit      -0.344952
 5029 Fit      -0.342038
 5030 Fit      -0.340737
 5031 Fit      -0.341017
 5032 Fit      -0.342889
 5033 Fit      -0.346429
 5034 Fit      -0.351811
 5035 Fit      -0.382394
 5036 Fit      -0.370270
 5037 Fit      -0.360318
 5038 Fit      -0.352315
 5039 Fit      -0.346064
 5040 Fit      -0.341407
 5041 Fit      -0.338223
 5042 Fit      -0.336425
 5043 Fit      -0.335954
 5044 Fit      -0.336780
 5045 Fit      -0.338908
 5046 Fit      -0.342390
 5047 Fit      -0.347344
 5048 Fit      -0.349927
 5049 Fit      -0.382735
 5050 Fit      -0.370140
 5051 Fit      -0.359838
 5052 Fit      -0.351512
 5053 Fit      -0.344910
 5054 Fit      -0.339842
 5055 Fit      -0.336164
 5056 Fit      -0.333771
 5057 Fit      -0.332586
 5058 Fit      -0.332558
 5059 Fit      -0.333659
 5060 Fit      -0.335886
 5061 Fit      -0.339273
 5062 Fit      -0.343903
 5063 Fit      -0.347167
 5064 Fit      -0.394186
 5065 Fit      -0.378789
 5066 Fit      -0.366297
 5067 Fit      -0.356202
 5068 Fit      -0.348115
 5069 Fit      -0.341753
 5070 Fit      -0.336906
 5071 Fit      -0.333424
 5072 Fit      -0.331197
 5073 Fit      -0.330144
 5074 Fit      -0.330210
 5075 Fit      -0.331360
 5076 Fit      -0.333586
 5077 Fit      -0.336910
 5078 Fit      -0.341396
 5079 Fit      -0.345670
 5080 Fit      -0.389414
 5081 Fit      -0.374619
 5082 Fit      -0.362698
 5083 Fit      -0.353108
 5084 Fit      -0.345457
 5085 Fit      -0.339463
 5086 Fit      -0.334925
 5087 Fit      -0.331696
 5088 Fit      -0.329672
 5089 Fit      -0.328773
 5090 Fit      -0.328947
 5091 Fit      -0.330159
 5092 Fit      -0.332398
 5093 Fit      -0.335683
 5094 Fit      -0.340071
 5095 Fit      -0.345392
 5096 Fit      -0.408525
 5097 Fit      -0.389779
 5098 Fit      -0.374765
 5099 Fit      -0.362705
 5100 Fit      -0.353024
 5101 Fit      -0.345311
 5102 Fit      -0.339273
 5103 Fit      -0.334703
 5104 Fit      -0.331451
 5105 Fit      -0.329408
 5106 Fit      -0.328496
 5107 Fit      -0.328658
 5108 Fit      -0.329861
 5109 Fit      -0.332094
 5110 Fit      -0.335378
 5111 Fit      -0.339772
 5112 Fit      -0.346286
 5113 Fit      -0.395426
 5114 Fit      -0.379322
 5115 Fit      -0.366377
 5116 Fit      -0.355984
 5117 Fit      -0.347697
 5118 Fit      -0.341195
 5119 Fit      -0.336248
 5120 Fit      -0.332692
 5121 Fit      -0.330407
 5122 Fit      -0.329308
 5123 Fit      -0.329336
 5124 Fit      -0.330455
 5125 Fit      -0.332658
 5126 Fit      -0.335970
 5127 Fit      -0.340466
 5128 Fit      -0.348301
 5129 Fit      -0.399973
 5130 Fit      -0.383607
 5131 Fit      -0.370274
 5132 Fit      -0.359478
 5133 Fit      -0.350815
 5134 Fit      -0.343977
 5135 Fit      -0.338738
 5136 Fit      -0.334931
 5137 Fit      -0.332438
 5138 Fit      -0.331171
 5139 Fit      -0.331073
 5140 Fit      -0.332112
 5141 Fit      -0.334286
 5142 Fit      -0.337633
 5143 Fit      -0.342246
 5144 Fit      -0.351382
 5145 Fit      -0.398674
 5146 Fit      -0.382981
 5147 Fit      -0.370030
 5148 Fit      -0.359508
 5149 Fit      -0.351108
 5150 Fit      -0.344572
 5151 Fit      -0.339704
 5152 Fit      -0.336355
 5153 Fit      -0.334421
 5154 Fit      -0.333831
 5155 Fit      -0.334546
 5156 Fit      -0.336567
 5157 Fit      -0.339946
 5158 Fit      -0.344805
 5159 Fit      -0.355459
 5160 Fit      -0.387202
 5161 Fit      -0.373839
 5162 Fit      -0.362867
 5163 Fit      -0.354121
 5164 Fit      -0.347407
 5165 Fit      -0.342555
 5166 Fit      -0.339432
 5167 Fit      -0.337944
 5168 Fit      -0.338042
 5169 Fit      -0.339722
 5170 Fit      -0.343050
 5171 Fit      -0.348189
 5172 Fit      -0.377986
 5173 Fit      -0.366835
 5174 Fit      -0.357910
 5175 Fit      -0.351151
 5176 Fit      -0.346459
 5177 Fit      -0.343743
 5178 Fit      -0.342949
 5179 Fit      -0.344074
 5180 Fit      -0.347196
 5181 Fit      -0.352518
 5182 Fit      -0.374934
 5183 Fit      -0.364947
 5184 Fit      -0.357393
 5185 Fit      -0.352329
 5186 Fit      -0.349751
 5187 Fit      -0.349672
 5188 Fit      -0.352185
 5189 Fit      -0.357534
 5190 Fit      -0.367105
 5191 Fit      -0.360531
 5192 Fit      -0.357515
 5193 Fit      -0.358266
 5194 Fit      -0.363102
 5195 Fit      -0.367094
 5196 Fit      -0.355544
 5197 Fit      -0.356001
 5198 Fit      -0.357279
 5199 Fit      -0.359388
 5200 Fit      -0.362361
 5201 Fit      -0.366240
 5202 Fit      -0.349559
 5203 Fit      -0.348117
 5204 Fit      -0.347568
 5205 Fit      -0.347839
 5206 Fit      -0.348902
 5207 Fit      -0.350761
 5208 Fit      -0.353448
 5209 Fit      -0.357007
 5210 Fit      -0.346031
 5211 Fit      -0.343574
 5212 Fit      -0.342103
 5213 Fit      -0.341503
 5214 Fit      -0.341713
 5215 Fit      -0.342710
 5216 Fit      -0.344506
 5217 Fit      -0.347134
 5218 Fit      -0.350652
 5219 Fit      -0.355135
 5220 Fit      -0.349585
 5221 Fit      -0.344770
 5222 Fit      -0.341286
 5223 Fit      -0.338909
 5224 Fit      -0.337491
 5225 Fit      -0.336940
 5226 Fit      -0.337210
 5227 Fit      -0.338293
 5228 Fit      -0.340205
 5229 Fit      -0.342996
 5230 Fit      -0.346740
 5231 Fit      -0.351557
 5232 Fit      -0.345438
 5233 Fit      -0.340990
 5234 Fit      -0.337720
 5235 Fit      -0.335475
 5236 Fit      -0.334146
 5237 Fit      -0.333670
 5238 Fit      -0.334016
 5239 Fit      -0.335185
 5240 Fit      -0.337205
 5241 Fit      -0.340131
 5242 Fit      -0.344053
 5243 Fit      -0.349116
 5244 Fit      -0.351272
 5245 Fit      -0.342230
 5246 Fit      -0.338018
 5247 Fit      -0.334940
 5248 Fit      -0.332888
 5249 Fit      -0.331787
 5250 Fit      -0.331595
 5251 Fit      -0.332304
 5252 Fit      -0.333930
 5253 Fit      -0.336522
 5254 Fit      -0.340158
 5255 Fit      -0.344964
 5256 Fit      -0.351128
 5257 Fit      -0.354585
 5258 Fit      -0.347708
 5259 Fit      -0.339916
 5260 Fit      -0.335902
 5261 Fit      -0.333041
 5262 Fit      -0.331269
 5263 Fit      -0.330543
 5264 Fit      -0.330849
 5265 Fit      -0.332199
 5266 Fit      -0.334636
 5267 Fit      -0.338229
 5268 Fit      -0.343082
 5269 Fit      -0.349328
 5270 Fit      -0.357097
 5271 Fit      -0.366390
 5272 Fit      -0.359289
 5273 Fit      -0.351634
 5274 Fit      -0.345150
 5275 Fit      -0.338489
 5276 Fit      -0.334735
 5277 Fit      -0.332173
 5278 Fit      -0.330788
 5279 Fit      -0.330575
 5280 Fit      -0.331545
 5281 Fit      -0.333728
 5282 Fit      -0.337175
 5283 Fit      -0.341943
 5284 Fit      -0.348065
 5285 Fit      -0.355477
 5286 Fit      -0.363860
 5287 Fit      -0.372485
 5288 Fit      -0.380272
 5289 Fit      -0.386273
 5290 Fit      -0.390207
 5291 Fit      -0.392399
 5292 Fit      -0.363774
 5293 Fit      -0.356394
 5294 Fit      -0.349468
 5295 Fit      -0.343426
 5296 Fit      -0.337966
 5297 Fit      -0.334440
 5298 Fit      -0.332277
 5299 Fit      -0.331524
 5300 Fit      -0.332211
 5301 Fit      -0.334366
 5302 Fit      -0.338005
 5303 Fit      -0.343099
 5304 Fit      -0.349494
 5305 Fit      -0.356785
 5306 Fit      -0.364214
 5307 Fit      -0.370801
 5308 Fit      -0.375763
 5309 Fit      -0.378846
 5310 Fit      -0.380169
 5311 Fit      -0.379943
 5312 Fit      -0.367365
 5313 Fit      -0.361503
 5314 Fit      -0.355023
 5315 Fit      -0.348573
 5316 Fit      -0.342751
 5317 Fit      -0.338384
 5318 Fit      -0.335073
 5319 Fit      -0.333607
 5320 Fit      -0.334118
 5321 Fit      -0.336636
 5322 Fit      -0.341063
 5323 Fit      -0.347064
 5324 Fit      -0.353907
 5325 Fit      -0.360455
 5326 Fit      -0.365548
 5327 Fit      -0.368528
 5328 Fit      -0.369313
 5329 Fit      -0.368126
 5330 Fit      -0.365254
 5331 Fit      -0.360898
 5332 Fit      -0.355332
 5333 Fit      -0.349165
 5334 Fit      -0.343255
 5335 Fit      -0.339800
 5336 Fit      -0.336950
 5337 Fit      -0.337028
 5338 Fit      -0.340126
 5339 Fit      -0.345640
 5340 Fit      -0.352081
 5341 Fit      -0.357377
 5342 Fit      -0.359959
 5343 Fit      -0.359414
 5344 Fit      -0.356123
 5345 Fit      -0.350854
 5346 Fit      -0.344876
 5347 Fit      -0.342290
 5348 Fit      -0.340960
 5349 Fit      -0.345259
 5350 Fit      -0.350925
 5351 Fit      -0.352073
 5352 Fit      -0.347786
 5353 Fit      -0.345954
 5354 Fit      -0.380779
 5355 Fit      -0.359620
 5356 Fit      -0.345440
 5357 Fit      -0.359831
 5358 Fit      -0.343319
 5359 Fit      -0.332301
 5360 Fit      -0.326023
 5361 Fit      -0.357213
 5362 Fit      -0.339707
 5363 Fit      -0.327495
 5364 Fit      -0.319796
 5365 Fit      -0.316090
 5366 Fit      -0.356826
 5367 Fit      -0.338499
 5368 Fit      -0.325319
 5369 Fit      -0.316452
 5370 Fit      -0.311333
 5371 Fit      -0.356034
 5372 Fit      -0.337214
 5373 Fit      -0.323582
 5374 Fit      -0.314202
 5375 Fit      -0.308454
 5376 Fit      -0.305943
 5377 Fit      -0.351947
 5378 Fit      -0.333339
 5379 Fit      -0.320112
 5380 Fit      -0.311226
 5381 Fit      -0.306027
 5382 Fit      -0.304107
 5383 Fit      -0.346547
 5384 Fit      -0.328951
 5385 Fit      -0.316818
 5386 Fit      -0.309105
 5387 Fit      -0.305173
 5388 Fit      -0.342404
 5389 Fit      -0.326423
 5390 Fit      -0.315744
 5391 Fit      -0.309441
 5392 Fit      -0.306946
 5393 Fit      -0.335197
 5394 Fit      -0.322184
 5395 Fit      -0.314520
 5396 Fit      -0.311461
 5397 Fit      -0.346567
 5398 Fit      -0.331021
 5399 Fit      -0.321807
 5400 Fit      -0.357332
 5401 Fit      -0.339791
 5402 Fit      -0.329814
 5403 Fit      -0.347852
 5404 Fit      -0.331793
 5405 Fit      -0.340578
 5406 Fit      -0.316844
 5407 Fit      -0.319840
 5408 Fit      -0.329246
 5409 Fit      -0.309045
 5410 Fit      -0.305659
 5411 Fit      -0.306774
 5412 Fit      -0.312810
 5413 Fit      -0.324640
 5414 Fit      -0.300626
 5415 Fit      -0.296921
 5416 Fit      -0.296750
 5417 Fit      -0.300345
 5418 Fit      -0.308216
 5419 Fit      -0.321286
 5420 Fit      -0.297240
 5421 Fit      -0.291769
 5422 Fit      -0.289429
 5423 Fit      -0.290291
 5424 Fit      -0.294613
 5425 Fit      -0.302903
 5426 Fit      -0.316052
 5427 Fit      -0.289495
 5428 Fit      -0.285503
 5429 Fit      -0.284272
 5430 Fit      -0.285898
 5431 Fit      -0.290631
 5432 Fit      -0.298923
 5433 Fit      -0.311529
 5434 Fit      -0.288070
 5435 Fit      -0.283385
 5436 Fit      -0.281233
 5437 Fit      -0.281650
 5438 Fit      -0.284780
 5439 Fit      -0.290904
 5440 Fit      -0.300486
 5441 Fit      -0.314254
 5442 Fit      -0.285520
 5443 Fit      -0.281353
 5444 Fit      -0.279749
 5445 Fit      -0.280752
 5446 Fit      -0.284507
 5447 Fit      -0.291287
 5448 Fit      -0.301519
 5449 Fit      -0.315825
 5450 Fit      -0.289262
 5451 Fit      -0.283594
 5452 Fit      -0.280656
 5453 Fit      -0.280430
 5454 Fit      -0.282992
 5455 Fit      -0.288518
 5456 Fit      -0.297292
 5457 Fit      -0.309697
 5458 Fit      -0.288385
 5459 Fit      -0.284023
 5460 Fit      -0.282487
 5461 Fit      -0.283783
 5462 Fit      -0.287994
 5463 Fit      -0.295271
 5464 Fit      -0.305790
 5465 Fit      -0.319670
 5466 Fit      -0.292344
 5467 Fit      -0.287856
 5468 Fit      -0.286699
 5469 Fit      -0.288851
 5470 Fit      -0.294347
 5471 Fit      -0.303223
 5472 Fit      -0.315393
 5473 Fit      -0.330431
 5474 Fit      -0.293618
 5475 Fit      -0.293079
 5476 Fit      -0.296389
 5477 Fit      -0.303444
 5478 Fit      -0.313987
 5479 Fit      -0.327408
 5480 Fit      -0.301139
 5481 Fit      -0.303293
 5482 Fit      -0.310193
 5483 Fit      -0.321190
 -----------------------------------------------------------------
 Leave Link  602 at Wed Sep 16 23:17:01 2015, MaxMem=   33554432 cpu:       1.1

 Test job not archived.
 1\1\GINC-NID04749\FOpt\RHF\6-31G(d)\C3H2O6P1(3-)\NMIH\16-Sep-2015\0\\#
 HF/6-31G* SCF=tight Test Pop=MK iop(6/33=2) iop(6/42=6) opt\\PEP.pdb\\
 -3,1\C,0.3116466894,-0.4910640766,2.3661769646\O,1.2029135693,-1.34859
 38863,2.3495013112\O,-0.1033724297,0.1137034059,3.3769269726\C,-0.4054
 08261,-0.1721163638,1.0159013699\C,-1.708689108,0.1313814286,1.0590461
 623\O,0.3363543579,-0.293213312,-0.0699615154\P,-0.044728188,0.1636577
 953,-1.7400740834\O,-0.1175537621,1.6697304429,-1.7005125138\O,1.15709
 92837,-0.4025907032,-2.4518869079\O,-1.3522725367,-0.5302602787,-2.040
 3364468\H,-2.2683557998,0.284596475,0.1564790354\H,-2.1876338149,0.235
 769073,2.0167396514\\Version=AM64L-G09RevC.01\State=1-A\HF=-904.431327
 \RMSD=5.257e-09\RMSF=2.616e-05\Dipole=-0.8394619,0.0083676,0.6805894\Q
 uadrupole=15.8093373,17.3879761,-33.1973134,4.409396,-2.8075057,6.0285
 373\PG=C01 [X(C3H2O6P1)]\\@


 ...THOSE SCIENCES ARE VAIN AND FULL OF ERRORS WHICH 
 ARE NOT BORN FROM EXPERIMENT, THE MOTHER OF CERTAINTY...

                          -- LEONARDO DA VINCI, 1452-1519
 Job cpu time:  0 days  0 hours 17 minutes 14.3 seconds.
 File lengths (MBytes):  RWF=     19 Int=      0 D2E=      0 Chk=      3 Scr=      1
 Normal termination of Gaussian 09 at Wed Sep 16 23:17:01 2015.
