 Entering Gaussian System, Link 0=g09
 Input=2PG_idealpdb_1OH.gau
 Output=2PG_idealpdb_1OH.log
 Initial command:
 /usr/common/usg/g09/c1/g09/l1.exe /scratch/scratchdirs/nmih/Gau-28260.inp -scrdir=/scratch/scratchdirs/nmih/
 Entering Link 1 = /usr/common/usg/g09/c1/g09/l1.exe PID=     28261.
  
 Copyright (c) 1988,1990,1992,1993,1995,1998,2003,2009,2011,
            Gaussian, Inc.  All Rights Reserved.
  
 This is part of the Gaussian(R) 09 program.  It is based on
 the Gaussian(R) 03 system (copyright 2003, Gaussian, Inc.),
 the Gaussian(R) 98 system (copyright 1998, Gaussian, Inc.),
 the Gaussian(R) 94 system (copyright 1995, Gaussian, Inc.),
 the Gaussian 92(TM) system (copyright 1992, Gaussian, Inc.),
 the Gaussian 90(TM) system (copyright 1990, Gaussian, Inc.),
 the Gaussian 88(TM) system (copyright 1988, Gaussian, Inc.),
 the Gaussian 86(TM) system (copyright 1986, Carnegie Mellon
 University), and the Gaussian 82(TM) system (copyright 1983,
 Carnegie Mellon University). Gaussian is a federally registered
 trademark of Gaussian, Inc.
  
 This software contains proprietary and confidential information,
 including trade secrets, belonging to Gaussian, Inc.
  
 This software is provided under written license and may be
 used, copied, transmitted, or stored only in accord with that
 written license.
  
 The following legend is applicable only to US Government
 contracts under FAR:
  
                    RESTRICTED RIGHTS LEGEND
  
 Use, reproduction and disclosure by the US Government is
 subject to restrictions as set forth in subparagraphs (a)
 and (c) of the Commercial Computer Software - Restricted
 Rights clause in FAR 52.227-19.
  
 Gaussian, Inc.
 340 Quinnipiac St., Bldg. 40, Wallingford CT 06492
  
  
 ---------------------------------------------------------------
 Warning -- This program may not be used in any manner that
 competes with the business of Gaussian, Inc. or will provide
 assistance to any competitor of Gaussian, Inc.  The licensee
 of this program is prohibited from giving any competitor of
 Gaussian, Inc. access to this program.  By using this program,
 the user acknowledges that Gaussian, Inc. is engaged in the
 business of creating and licensing software in the field of
 computational chemistry and represents and warrants to the
 licensee that it is not a competitor of Gaussian, Inc. and that
 it will not use this program in any manner prohibited above.
 ---------------------------------------------------------------
  

 Cite this work as:
 Gaussian 09, Revision C.01,
 M. J. Frisch, G. W. Trucks, H. B. Schlegel, G. E. Scuseria, 
 M. A. Robb, J. R. Cheeseman, G. Scalmani, V. Barone, B. Mennucci, 
 G. A. Petersson, H. Nakatsuji, M. Caricato, X. Li, H. P. Hratchian, 
 A. F. Izmaylov, J. Bloino, G. Zheng, J. L. Sonnenberg, M. Hada, 
 M. Ehara, K. Toyota, R. Fukuda, J. Hasegawa, M. Ishida, T. Nakajima, 
 Y. Honda, O. Kitao, H. Nakai, T. Vreven, J. A. Montgomery, Jr., 
 J. E. Peralta, F. Ogliaro, M. Bearpark, J. J. Heyd, E. Brothers, 
 K. N. Kudin, V. N. Staroverov, T. Keith, R. Kobayashi, J. Normand, 
 K. Raghavachari, A. Rendell, J. C. Burant, S. S. Iyengar, J. Tomasi, 
 M. Cossi, N. Rega, J. M. Millam, M. Klene, J. E. Knox, J. B. Cross, 
 V. Bakken, C. Adamo, J. Jaramillo, R. Gomperts, R. E. Stratmann, 
 O. Yazyev, A. J. Austin, R. Cammi, C. Pomelli, J. W. Ochterski, 
 R. L. Martin, K. Morokuma, V. G. Zakrzewski, G. A. Voth, 
 P. Salvador, J. J. Dannenberg, S. Dapprich, A. D. Daniels, 
 O. Farkas, J. B. Foresman, J. V. Ortiz, J. Cioslowski, 
 and D. J. Fox, Gaussian, Inc., Wallingford CT, 2010.
 
 ******************************************
 Gaussian 09:  AM64L-G09RevC.01 23-Sep-2011
                16-Sep-2015 
 ******************************************
 %chk=2PG_idealpdb_1OH.chk
 ----------------------------------------------
 #HF/6-31G* Test Pop=MK iop(6/33=2) iop(6/42=6)
 ----------------------------------------------
 1/38=1/1;
 2/12=2,17=6,18=5,40=1/2;
 3/5=1,6=6,7=1,11=9,16=1,25=1,30=1/1,2,3;
 4//1;
 5/5=2,38=5/2;
 6/7=2,8=2,9=2,10=2,15=8,20=1,28=1,33=2,42=6/1,2;
 99/5=1,9=1/99;
 --------
 16 atoms
 --------
 Charge = -2 Multiplicity = 1
 Symbolic Z-Matrix:
 C                     1.685     0.219    -1.447 
 O                     2.661     0.082    -0.411 
 C                     0.297    -0.09     -0.883 
 O                     0.        0.821     0.175 
 P                    -0.238    -0.064     1.498 
 O                    -1.45806  -1.07028   1.25538 
 C                    -0.731     0.054    -1.975 
 O                    -0.651    -0.707    -3.077 
 O                    -1.627     0.855    -1.858 
 O                     0.987    -0.837     1.8 
 O                    -0.58      0.904     2.738 
 H                     0.279    -1.11     -0.5 
 H                     1.703     1.239    -1.83 
 H                     1.913    -0.476    -2.255 
 H                     3.519     0.285    -0.808 
 H                    -1.59763  -1.59073   2.03413 
 
                          Input orientation:                          
 ---------------------------------------------------------------------
 Center     Atomic      Atomic             Coordinates (Angstroms)
 Number     Number       Type             X           Y           Z
 ---------------------------------------------------------------------
      1          6           0        1.685000    0.219000   -1.447000
      2          8           0        2.661000    0.082000   -0.411000
      3          6           0        0.297000   -0.090000   -0.883000
      4          8           0        0.000000    0.821000    0.175000
      5         15           0       -0.238000   -0.064000    1.498000
      6          8           0       -1.458060   -1.070275    1.255380
      7          6           0       -0.731000    0.054000   -1.975000
      8          8           0       -0.651000   -0.707000   -3.077000
      9          8           0       -1.627000    0.855000   -1.858000
     10          8           0        0.987000   -0.837000    1.800000
     11          8           0       -0.580000    0.904000    2.738000
     12          1           0        0.279000   -1.110000   -0.500000
     13          1           0        1.703000    1.239000   -1.830000
     14          1           0        1.913000   -0.476000   -2.255000
     15          1           0        3.519000    0.285000   -0.808000
     16          1           0       -1.597633   -1.590729    2.034133
 ---------------------------------------------------------------------
                    Distance matrix (angstroms):
                    1          2          3          4          5
     1  C    0.000000
     2  O    1.429909   0.000000
     3  C    1.529745   2.416788   0.000000
     4  O    2.415060   2.823196   1.427408   0.000000
     5  P    3.528604   3.474161   2.440504   1.609409   0.000000
     6  O    4.340958   4.590339   2.934935   2.621084   1.600000
     7  C    2.478521   3.735310   1.506647   2.396904   3.509801
     8  O    2.995208   4.324283   2.468406   3.651587   4.638388
     9  O    3.397464   4.591109   2.354873   2.604107   3.746547
    10  O    3.485018   2.921534   2.869250   2.522649   1.479648
    11  O    4.807668   4.593035   3.856009   2.629117   1.609841
    12  H    2.154039   2.665091   1.089685   2.064516   2.313744
    13  H    1.089685   2.066392   2.154039   2.663636   4.067047
    14  H    1.089896   2.066689   2.154724   3.353607   4.345291
    15  H    1.943253   0.966945   3.244616   3.692824   4.422045
    16  H    5.115573   5.187741   3.788336   3.438785   2.113514
                    6          7          8          9         10
     6  O    0.000000
     7  C    3.496851   0.000000
     8  O    4.421858   1.341613   0.000000
     9  O    3.664473   1.207521   2.208706   0.000000
    10  O    2.515819   4.242173   5.146365   4.803834   0.000000
    11  O    2.620480   4.791416   6.034450   4.714003   2.523175
    12  H    2.469881   2.133218   2.769158   3.055851   2.421940
    13  H    4.984438   2.711016   3.298976   3.352184   4.242562
    14  H    4.903058   2.711095   2.702432   3.802732   4.175024
    15  H    5.555667   4.413360   4.849879   5.282870   3.804152
    16  H    0.947000   4.419201   5.272644   4.596863   2.702453
                   11         12         13         14         15
    11  O    0.000000
    12  H    3.908800   0.000000
    13  H    5.117708   3.051963   0.000000
    14  H    5.748869   2.480310   1.779312   0.000000
    15  H    5.455188   3.540973   2.291824   2.291760   0.000000
    16  H    2.784722   3.189778   5.816620   5.653656   6.146219
                   16
    16  H    0.000000
 Stoichiometry    C3H5O7P(2-)
 Framework group  C1[X(C3H5O7P)]
 Deg. of freedom    42
 Full point group                 C1      NOp   1
 Largest Abelian subgroup         C1      NOp   1
 Largest concise Abelian subgroup C1      NOp   1
                         Standard orientation:                         
 ---------------------------------------------------------------------
 Center     Atomic      Atomic             Coordinates (Angstroms)
 Number     Number       Type             X           Y           Z
 ---------------------------------------------------------------------
      1          6           0        1.526225    1.555599   -0.167687
      2          8           0        0.546364    2.587863   -0.030048
      3          6           0        0.875811    0.197183    0.100247
      4          8           0       -0.178520   -0.018475   -0.837502
      5         15           0       -1.531311   -0.196187    0.016061
      6          8           0       -1.381376   -1.448620    1.000404
      7          6           0        1.908672   -0.890133   -0.044411
      8          8           0        2.997369   -0.890592    0.739593
      9          8           0        1.756257   -1.761221   -0.866652
     10          8           0       -1.777292    1.028481    0.809182
     11          8           0       -2.768732   -0.444892   -0.983200
     12          1           0        0.471246    0.181002    1.111918
     13          1           0        1.930789    1.571780   -1.179359
     14          1           0        2.331506    1.721490    0.547767
     15          1           0        0.996939    3.424975   -0.206710
     16          1           0       -2.177625   -1.552698    1.502365
 ---------------------------------------------------------------------
 Rotational constants (GHZ):      1.3965228      0.7764968      0.5920778
 Standard basis: 6-31G(d) (6D, 7F)
 There are   179 symmetry adapted basis functions of A   symmetry.
 Integral buffers will be    131072 words long.
 Raffenetti 1 integral format.
 Two-electron integral symmetry is turned on.
   179 basis functions,   352 primitive gaussians,   179 cartesian basis functions
    48 alpha electrons       48 beta electrons
       nuclear repulsion energy       802.1046646691 Hartrees.
 NAtoms=   16 NActive=   16 NUniq=   16 SFac= 1.00D+00 NAtFMM=   60 NAOKFM=F Big=F
 One-electron integrals computed using PRISM.
 NBasis=   179 RedAO= T  NBF=   179
 NBsUse=   179 1.00D-06 NBFU=   179
 Harris functional with IExCor=  205 diagonalized for initial guess.
 ExpMin= 9.98D-02 ExpMax= 1.94D+04 ExpMxC= 2.91D+03 IAcc=2 IRadAn=         4 AccDes= 0.00D+00
 HarFok:  IExCor=  205 AccDes= 0.00D+00 IRadAn=         4 IDoV= 1
 ScaDFX=  1.000000  1.000000  1.000000  1.000000
 FoFCou: FMM=F IPFlag=           0 FMFlag=      100000 FMFlg1=           0
         NFxFlg=           0 DoJE=T BraDBF=F KetDBF=T FulRan=T
         Omega=  0.000000  0.000000  1.000000  0.000000  0.000000 ICntrl=     500 IOpCl=  0
         NMat0=    1 NMatS0=    1 NMatT0=    0 NMatD0=    1 NMtDS0=    0 NMtDT0=    0
         I1Cent=           4 NGrid=           0.
 Petite list used in FoFCou.
 Initial guess orbital symmetries:
       Occupied  (A) (A) (A) (A) (A) (A) (A) (A) (A) (A) (A) (A)
                 (A) (A) (A) (A) (A) (A) (A) (A) (A) (A) (A) (A)
                 (A) (A) (A) (A) (A) (A) (A) (A) (A) (A) (A) (A)
                 (A) (A) (A) (A) (A) (A) (A) (A) (A) (A) (A) (A)
       Virtual   (A) (A) (A) (A) (A) (A) (A) (A) (A) (A) (A) (A)
                 (A) (A) (A) (A) (A) (A) (A) (A) (A) (A) (A) (A)
                 (A) (A) (A) (A) (A) (A) (A) (A) (A) (A) (A) (A)
                 (A) (A) (A) (A) (A) (A) (A) (A) (A) (A) (A) (A)
                 (A) (A) (A) (A) (A) (A) (A) (A) (A) (A) (A) (A)
                 (A) (A) (A) (A) (A) (A) (A) (A) (A) (A) (A) (A)
                 (A) (A) (A) (A) (A) (A) (A) (A) (A) (A) (A) (A)
                 (A) (A) (A) (A) (A) (A) (A) (A) (A) (A) (A) (A)
                 (A) (A) (A) (A) (A) (A) (A) (A) (A) (A) (A) (A)
                 (A) (A) (A) (A) (A) (A) (A) (A) (A) (A) (A) (A)
                 (A) (A) (A) (A) (A) (A) (A) (A) (A) (A) (A)
 The electronic state of the initial guess is 1-A.
 Requested convergence on RMS density matrix=1.00D-08 within 128 cycles.
 Requested convergence on MAX density matrix=1.00D-06.
 Requested convergence on             energy=1.00D-06.
 No special actions if energy rises.
 Integral accuracy reduced to 1.0D-05 until final iterations.
 Initial convergence to 1.0D-05 achieved.  Increase integral accuracy.
 SCF Done:  E(RHF) =  -981.244405875     A.U. after   15 cycles
             Convg  =    0.4836D-08             -V/T =  2.0019

 **********************************************************************

            Population analysis using the SCF density.

 **********************************************************************

 Orbital symmetries:
 BldTbl:  Degeneracy threshold= 1.00D-02
       Occupied  (A) (A) (A) (A) (A) (A) (A) (A) (A) (A) (A) (A)
                 (A) (A) (A) (A) (A) (A) (A) (A) (A) (A) (A) (A)
                 (A) (A) (A) (A) (A) (A) (A) (A) (A) (A) (A) (A)
                 (A) (A) (A) (A) (A) (A) (A) (A) (A) (A) (A) (A)
       Virtual   (A) (A) (A) (A) (A) (A) (A) (A) (A) (A) (A) (A)
                 (A) (A) (A) (A) (A) (A) (A) (A) (A) (A) (A) (A)
                 (A) (A) (A) (A) (A) (A) (A) (A) (A) (A) (A) (A)
                 (A) (A) (A) (A) (A) (A) (A) (A) (A) (A) (A) (A)
                 (A) (A) (A) (A) (A) (A) (A) (A) (A) (A) (A) (A)
                 (A) (A) (A) (A) (A) (A) (A) (A) (A) (A) (A) (A)
                 (A) (A) (A) (A) (A) (A) (A) (A) (A) (A) (A) (A)
                 (A) (A) (A) (A) (A) (A) (A) (A) (A) (A) (A) (A)
                 (A) (A) (A) (A) (A) (A) (A) (A) (A) (A) (A) (A)
                 (A) (A) (A) (A) (A) (A) (A) (A) (A) (A) (A) (A)
                 (A) (A) (A) (A) (A) (A) (A) (A) (A) (A) (A)
 The electronic state is 1-A.
 Alpha  occ. eigenvalues --  -79.75473 -20.31092 -20.30415 -20.28499 -20.17889
 Alpha  occ. eigenvalues --  -20.15452 -20.15116 -20.14807 -11.02175 -11.01170
 Alpha  occ. eigenvalues --  -10.99915  -7.27628  -5.17535  -5.17455  -5.17278
 Alpha  occ. eigenvalues --   -1.13187  -1.10513  -1.08473  -1.04685  -0.95002
 Alpha  occ. eigenvalues --   -0.90349  -0.86991  -0.74066  -0.59047  -0.51798
 Alpha  occ. eigenvalues --   -0.46141  -0.42070  -0.39590  -0.36628  -0.35408
 Alpha  occ. eigenvalues --   -0.34443  -0.31905  -0.28602  -0.27185  -0.26614
 Alpha  occ. eigenvalues --   -0.24309  -0.23096  -0.20957  -0.19856  -0.18486
 Alpha  occ. eigenvalues --   -0.16897  -0.12624  -0.11962  -0.08363  -0.07537
 Alpha  occ. eigenvalues --   -0.06239  -0.05759  -0.05408
 Alpha virt. eigenvalues --    0.44735   0.47699   0.52127   0.54899   0.56098
 Alpha virt. eigenvalues --    0.60437   0.62106   0.63968   0.66273   0.66932
 Alpha virt. eigenvalues --    0.70515   0.72812   0.74071   0.77226   0.83977
 Alpha virt. eigenvalues --    0.85557   0.88431   0.90485   0.93434   0.96087
 Alpha virt. eigenvalues --    1.07093   1.08451   1.09044   1.13213   1.17617
 Alpha virt. eigenvalues --    1.18372   1.19234   1.24347   1.27574   1.30263
 Alpha virt. eigenvalues --    1.31102   1.32324   1.34275   1.35511   1.37797
 Alpha virt. eigenvalues --    1.39731   1.41407   1.44503   1.45819   1.47112
 Alpha virt. eigenvalues --    1.48824   1.49979   1.51959   1.55360   1.56388
 Alpha virt. eigenvalues --    1.57256   1.58858   1.62063   1.62448   1.64237
 Alpha virt. eigenvalues --    1.65979   1.70871   1.72016   1.72828   1.73527
 Alpha virt. eigenvalues --    1.76767   1.78304   1.80858   1.82186   1.85010
 Alpha virt. eigenvalues --    1.89319   1.92110   1.93355   1.96323   2.00241
 Alpha virt. eigenvalues --    2.04447   2.06988   2.10345   2.13186   2.17297
 Alpha virt. eigenvalues --    2.20000   2.26300   2.28749   2.29430   2.30454
 Alpha virt. eigenvalues --    2.33133   2.36856   2.39594   2.40626   2.42359
 Alpha virt. eigenvalues --    2.43985   2.48343   2.49740   2.50143   2.51254
 Alpha virt. eigenvalues --    2.52156   2.53343   2.55159   2.57310   2.58210
 Alpha virt. eigenvalues --    2.62253   2.65812   2.69125   2.71322   2.72380
 Alpha virt. eigenvalues --    2.75492   2.78772   2.80539   2.86932   2.89929
 Alpha virt. eigenvalues --    2.92570   2.95723   2.97977   3.03088   3.05668
 Alpha virt. eigenvalues --    3.07495   3.14747   3.19661   3.23235   3.30222
 Alpha virt. eigenvalues --    3.35749   3.38684   3.41195   3.45550   3.51600
 Alpha virt. eigenvalues --    3.56074   3.59316   3.63422   3.75901   3.86581
 Alpha virt. eigenvalues --    4.22260   4.41197   4.47733   4.57820   4.60395
 Alpha virt. eigenvalues --    4.73000   4.81986   4.89399   5.05087   5.13406
 Alpha virt. eigenvalues --    5.37257
          Condensed to atoms (all electrons):
              1          2          3          4          5          6
     1  C    4.844456   0.205236   0.335198  -0.044631  -0.003412   0.000163
     2  O    0.205236   8.384412  -0.051455   0.003718   0.000529  -0.000002
     3  C    0.335198  -0.051455   5.239004   0.116774  -0.030961  -0.005196
     4  O   -0.044631   0.003718   0.116774   8.496079   0.265268  -0.015200
     5  P   -0.003412   0.000529  -0.030961   0.265268  11.896054   0.245946
     6  O    0.000163  -0.000002  -0.005196  -0.015200   0.245946   8.406226
     7  C   -0.046631   0.001024   0.265030  -0.029565   0.000614   0.000787
     8  O    0.004967   0.000039  -0.105002   0.001343   0.000093  -0.000003
     9  O   -0.001278  -0.000015  -0.106662  -0.001439   0.006902  -0.000297
    10  O   -0.002692  -0.000794  -0.005907  -0.035869   0.571691  -0.041039
    11  O   -0.000045  -0.000011  -0.000104  -0.030377   0.540311  -0.035670
    12  H   -0.040280   0.000645   0.389669  -0.038654  -0.003021   0.002421
    13  H    0.383678  -0.041627  -0.041838  -0.000073  -0.000607  -0.000002
    14  H    0.382771  -0.038892  -0.040668   0.003169   0.000492   0.000001
    15  H   -0.028673   0.246896   0.007247  -0.000214   0.000030   0.000000
    16  H   -0.000003   0.000000   0.000197   0.000585  -0.006439   0.266314
              7          8          9         10         11         12
     1  C   -0.046631   0.004967  -0.001278  -0.002692  -0.000045  -0.040280
     2  O    0.001024   0.000039  -0.000015  -0.000794  -0.000011   0.000645
     3  C    0.265030  -0.105002  -0.106662  -0.005907  -0.000104   0.389669
     4  O   -0.029565   0.001343  -0.001439  -0.035869  -0.030377  -0.038654
     5  P    0.000614   0.000093   0.006902   0.571691   0.540311  -0.003021
     6  O    0.000787  -0.000003  -0.000297  -0.041039  -0.035670   0.002421
     7  C    4.104210   0.455161   0.565026   0.000509  -0.000046  -0.033718
     8  O    0.455161   8.627366  -0.109219   0.000000   0.000000   0.003725
     9  O    0.565026  -0.109219   8.320114  -0.000004  -0.000004   0.000843
    10  O    0.000509   0.000000  -0.000004   8.405029  -0.052813   0.008592
    11  O   -0.000046   0.000000  -0.000004  -0.052813   8.505277   0.000016
    12  H   -0.033718   0.003725   0.000843   0.008592   0.000016   0.510512
    13  H   -0.000522   0.000282   0.001109  -0.000023  -0.000001   0.004961
    14  H    0.002555   0.009840   0.000284  -0.000047   0.000000  -0.001568
    15  H   -0.000074   0.000008   0.000001   0.000264   0.000000  -0.000158
    16  H   -0.000032   0.000000   0.000001   0.000171  -0.000435  -0.000122
             13         14         15         16
     1  C    0.383678   0.382771  -0.028673  -0.000003
     2  O   -0.041627  -0.038892   0.246896   0.000000
     3  C   -0.041838  -0.040668   0.007247   0.000197
     4  O   -0.000073   0.003169  -0.000214   0.000585
     5  P   -0.000607   0.000492   0.000030  -0.006439
     6  O   -0.000002   0.000001   0.000000   0.266314
     7  C   -0.000522   0.002555  -0.000074  -0.000032
     8  O    0.000282   0.009840   0.000008   0.000000
     9  O    0.001109   0.000284   0.000001   0.000001
    10  O   -0.000023  -0.000047   0.000264   0.000171
    11  O   -0.000001   0.000000   0.000000  -0.000435
    12  H    0.004961  -0.001568  -0.000158  -0.000122
    13  H    0.625922  -0.042363  -0.004386   0.000000
    14  H   -0.042363   0.591135  -0.004682   0.000000
    15  H   -0.004386  -0.004682   0.399399   0.000000
    16  H    0.000000   0.000000   0.000000   0.289552
 Mulliken atomic charges:
              1
     1  C    0.011177
     2  O   -0.709705
     3  C    0.034674
     4  O   -0.690914
     5  P    1.516512
     6  O   -0.824449
     7  C    0.715674
     8  O   -0.888601
     9  O   -0.675363
    10  O   -0.847066
    11  O   -0.926097
    12  H    0.196141
    13  H    0.115488
    14  H    0.137974
    15  H    0.384343
    16  H    0.450211
 Sum of Mulliken atomic charges =  -2.00000
 Mulliken charges with hydrogens summed into heavy atoms:
              1
     1  C    0.264639
     2  O   -0.325361
     3  C    0.230814
     4  O   -0.690914
     5  P    1.516512
     6  O   -0.374238
     7  C    0.715674
     8  O   -0.888601
     9  O   -0.675363
    10  O   -0.847066
    11  O   -0.926097
 Sum of Mulliken charges with hydrogens summed into heavy atoms =  -2.00000
 DipInt: DoE/N= T F RetVal/Mat= T F Init=T NMatP=  1 IDeriv=0 Min/MaxMlt=  0  4
 Entering OneElI...
 OneElI was handed    33469788 working-precision words.
 Multipole integrals L=0 to 4 MinM= 0 MaxM= 0.
 Requested accuracy = 0.1000D-12
 PrsmSu:  NPrtUS=   1 ThrOK=F IAlg=1 NPAlg=1 LenDen=           0.
 Prism:   IPart=     0 DynPar=F LinDyn=F Incr=          13.
 PRISM was handed    33327080 working-precision words and  1396 shell-pairs
 IPart=  0 NShTot=        1396 NBatch=          61 AvBLen=        22.9
 PrSmSu:  NxtVal=             14.
 Electronic moments (au):
        -96.00000000          0.26362487          1.93903980          0.86176488
      -1140.97029628       -604.43674615       -212.47792735         17.76084108
        -10.00572903         -6.82406652       -371.68848364       -871.57801884
          3.70805254       -668.63225039        846.79437149        -54.72532193
        128.26995671        168.84288385         -4.83351110         11.40221078
     -25159.84313204     -10455.71939156      -1164.21688457       2198.28201126
      -3107.44783968       -973.97125943        -15.74928368         -3.20535867
         17.40531294      -5159.47086743      -2994.28751094      -1178.35914935
        -85.84971597        912.32458259         76.33854662
 Electronic spatial extent (au):  <R**2>=           1957.8850
 DipInt: DoE/N= F T RetVal/Mat= T F Init=T NMatP=  1 IDeriv=0 Min/MaxMlt=  0  4
 Nuclear    moments (au):
         94.00000000          0.00000000          0.00000000          0.00000000
       1041.99131767        540.17763497        151.60297198          0.00000000
          0.00000000          0.00000000        324.53176347        922.37879065
          8.31610816        661.00910896       -790.30907842         69.97277867
       -132.86139510       -164.55841213          6.68213410          7.49923230
      19980.68147900       8704.08704393        489.90028515      -1848.17673815
       2655.59143202       1228.60165652        -81.18809694        -72.94111697
        -62.10250037       4100.37553071       2135.60012485        723.84969746
         -5.52461940       -916.69461692         -7.21040577
 Total      moments (au):
         -2.00000000          0.26362487          1.93903980          0.86176488
        -98.97897861        -64.25911118        -60.87495537         17.76084108
        -10.00572903         -6.82406652        -47.15672016         50.80077181
         12.02416070         -7.62314143         56.48529307         15.24745674
         -4.59143839          4.28447172          1.84862300         18.90144308
      -5179.16165304      -1751.63234762       -674.31659943        350.10527311
       -451.85640766        254.63039709        -96.93738062        -76.14647564
        -44.69718743      -1059.09533672       -858.68738609       -454.50945189
        -91.37433537         -4.37003433         69.12814084
 Traceless Quadrup. (au):
        -24.27463022         10.44523721         13.82939301         17.76084108
        -10.00572903         -6.82406652
 Charge=             -2.0000 electrons
 Dipole moment (field-independent basis, Debye):
    X=              0.6701    Y=              4.9285    Z=              2.1904  Tot=              5.4348
 Quadrupole moment (field-independent basis, Debye-Ang):
   XX=           -133.1301   YY=            -86.4307   ZZ=            -81.8789
   XY=             23.8889   XZ=            -13.4580   YZ=             -9.1786
 Traceless Quadrupole moment (field-independent basis, Debye-Ang):
   XX=            -32.6502   YY=             14.0492   ZZ=             18.6010
   XY=             23.8889   XZ=            -13.4580   YZ=             -9.1786
 Octapole moment (field-independent basis, Debye-Ang**2):
  XXX=            -33.5643  YYY=             36.1580  ZZZ=              8.5583  XYY=             -5.4259
  XXY=             40.2041  XXZ=             10.8526  XZZ=             -3.2680  YZZ=              3.0495
  YYZ=              1.3158  XYZ=             13.4533
 Hexadecapole moment (field-independent basis, Debye-Ang**3):
 XXXX=          -1950.7205 YYYY=           -659.7487 ZZZZ=           -253.9799 XXXY=            131.8664
 XXXZ=           -170.1908 YYYX=             95.9060 YYYZ=            -36.5113 ZZZX=            -28.6804
 ZZZY=            -16.8351 XXYY=           -398.9061 XXZZ=           -323.4228 YYZZ=           -171.1900
 XXYZ=            -34.4160 YYXZ=             -1.6460 ZZXY=             26.0370
 N-N= 8.021046646691D+02 E-N=-3.963343464776D+03  KE= 9.793670954835D+02
 Entering OneElI...
 OneElI was handed    33405127 working-precision words.
 Calculate electrostatic properties
    NBasis =   179  MinDer = 0  MaxDer = 0
    NGrid  =    16  NMatD  =   1
 Requested accuracy = 0.1000D-12
 PrsmSu:  NPrtUS=   1 ThrOK=F IAlg=1 NPAlg=1 LenDen=           0.
 Prism:   IPart=     0 DynPar=F LinDyn=F Incr=         210.
 PRISM was handed    33271306 working-precision words and  1314 shell-pairs
 IPart=  0 NShTot=       21024 NBatch=        1314 AvBLen=        16.0
 PrSmSu:  NxtVal=            211.
 --------------------------------------------------------
       Center         ----      EFG at Nuclei      ----
                      3XX-RR        3YY-RR        3ZZ-RR
 --------------------------------------------------------
     1   Atom       -0.074276     -0.087395      0.161671
     2   Atom       -0.061873     -1.828613      1.890485
     3   Atom       -0.122411      0.157022     -0.034610
     4   Atom       -1.197772      1.393989     -0.196217
     5   Atom       -0.120409      0.077083      0.043326
     6   Atom       -0.378699      0.391117     -0.012418
     7   Atom        0.053150      0.043182     -0.096332
     8   Atom       -0.891890      0.961806     -0.069915
     9   Atom        1.041890     -0.489110     -0.552781
    10   Atom        0.352084     -0.535095      0.183011
    11   Atom       -0.776066      0.779653     -0.003587
    12   Atom        0.069848      0.161105     -0.230953
    13   Atom        0.092510      0.143354     -0.235864
    14   Atom       -0.094804      0.133717     -0.038913
    15   Atom        0.066027     -0.306030      0.240004
    16   Atom       -0.296423      0.250557      0.045867
 --------------------------------------------------------
                        XY            XZ            YZ
 --------------------------------------------------------
     1   Atom        0.280878      0.054359     -0.036382
     2   Atom        0.180806      0.480143      0.279540
     3   Atom       -0.153543     -0.298999     -0.021900
     4   Atom       -0.694129     -0.432298      0.056956
     5   Atom        0.090328      0.233232      0.623636
     6   Atom       -0.210258      1.086672      1.029471
     7   Atom       -0.217685      0.275503      0.343195
     8   Atom       -0.216760     -0.880219      0.637127
     9   Atom       -0.781236      0.658233     -0.360766
    10   Atom        0.334888      0.239051     -0.501995
    11   Atom       -0.127333     -0.927482      0.042837
    12   Atom       -0.020366      0.129571      0.001081
    13   Atom        0.002821      0.162005      0.012329
    14   Atom       -0.055220     -0.216065     -0.053228
    15   Atom       -0.270526      0.069967      0.111886
    16   Atom       -0.063782      0.362490      0.071243
 --------------------------------------------------------


 ---------------------------------------------------------------------------------
              Nuclear Quadrupole in Principal Axis System
 ---------------------------------------------------------------------------------

       Atom             a.u.   MegaHertz   Gauss  10(-4) cm-1        Axes

              Baa    -0.3695   -49.584   -17.693   -16.540 -0.6958  0.7082  0.1197
     1 C(13)  Bbb     0.1644    22.059     7.871     7.358 -0.1715 -0.3257  0.9298
              Bcc     0.2051    27.525     9.822     9.181  0.6975  0.6264  0.3481
 
              Baa    -1.8615   134.700    48.064    44.931 -0.0830  0.9945 -0.0635
     2 O(17)  Bbb    -0.1661    12.020     4.289     4.010  0.9697  0.0659 -0.2353
              Bcc     2.0277  -146.720   -52.353   -48.941  0.2299  0.0811  0.9698
 
              Baa    -0.4113   -55.190   -19.693   -18.409  0.7561  0.2279  0.6135
     3 C(13)  Bbb     0.1219    16.359     5.837     5.457  0.2587  0.7569 -0.6001
              Bcc     0.2894    38.831    13.856    12.953 -0.6011  0.6124  0.5134
 
              Baa    -1.4990   108.464    38.703    36.180  0.9293  0.2171  0.2989
     4 O(17)  Bbb    -0.0842     6.090     2.173     2.031 -0.2676 -0.1622  0.9498
              Bcc     1.5831  -114.554   -40.876   -38.211 -0.2547  0.9626  0.0927
 
              Baa    -0.5890  -127.332   -45.435   -42.473 -0.2362 -0.6469  0.7251
     5 P(31)  Bbb    -0.1554   -33.604   -11.991   -11.209  0.9372 -0.3487 -0.0057
              Bcc     0.7444   160.936    57.426    53.682  0.2565  0.6782  0.6886
 
              Baa    -1.6588   120.033    42.831    40.039 -0.6306 -0.3990  0.6657
     6 O(17)  Bbb     0.2217   -16.043    -5.724    -5.351  0.6936 -0.6746  0.2527
              Bcc     1.4371  -103.990   -37.106   -34.687  0.3483  0.6210  0.7022
 
              Baa    -0.5735   -76.957   -27.460   -25.670 -0.4888 -0.5496  0.6775
     7 C(13)  Bbb     0.2495    33.481    11.947    11.168  0.8703 -0.3612  0.3349
              Bcc     0.3240    43.476    15.513    14.502  0.0606  0.7533  0.6548
 
              Baa    -1.4638   105.923    37.796    35.332  0.8282 -0.0720  0.5559
     8 O(17)  Bbb     0.0367    -2.659    -0.949    -0.887 -0.4918 -0.5691  0.6590
              Bcc     1.4271  -103.264   -36.847   -34.445 -0.2689  0.8191  0.5067
 
              Baa    -0.8867    64.160    22.894    21.401  0.0838  0.7549  0.6505
     9 O(17)  Bbb    -0.7396    53.515    19.095    17.851 -0.4894 -0.5374  0.6868
              Bcc     1.6262  -117.674   -41.989   -39.252  0.8680 -0.3759  0.3244
 
              Baa    -0.9234    66.820    23.843    22.289 -0.3046  0.8409  0.4473
    10 O(17)  Bbb     0.4016   -29.056   -10.368    -9.692 -0.5447 -0.5391  0.6425
              Bcc     0.5219   -37.764   -13.475   -12.597  0.7814 -0.0479  0.6222
 
              Baa    -1.3976   101.131    36.086    33.734  0.8325  0.0378  0.5527
    11 O(17)  Bbb     0.5634   -40.770   -14.548   -13.599 -0.4841 -0.4355  0.7590
              Bcc     0.8342   -60.361   -21.538   -20.134 -0.2694  0.8994  0.3442
 
              Baa    -0.2792  -148.978   -53.159   -49.694 -0.3489 -0.0184  0.9370
    12 H(1)   Bbb     0.1110    59.223    21.132    19.755  0.8760  0.3489  0.3330
              Bcc     0.1682    89.755    32.027    29.939 -0.3330  0.9370 -0.1056
 
              Baa    -0.3026  -161.439   -57.606   -53.850 -0.3792 -0.0232  0.9250
    13 H(1)   Bbb     0.1407    75.065    26.785    25.039 -0.3506  0.9287 -0.1204
              Bcc     0.1619    86.374    30.820    28.811  0.8563  0.3700  0.3603
 
              Baa    -0.2983  -159.165   -56.794   -53.092  0.7386  0.1746  0.6511
    14 H(1)   Bbb     0.1452    77.485    27.648    25.846 -0.4526  0.8443  0.2870
              Bcc     0.1531    81.680    29.145    27.245 -0.4996 -0.5067  0.7027
 
              Baa    -0.4726  -252.169   -89.980   -84.114  0.4601  0.8691 -0.1816
    15 H(1)   Bbb     0.2067   110.281    39.351    36.786  0.8576 -0.4880 -0.1624
              Bcc     0.2659   141.887    50.629    47.329  0.2298  0.0810  0.9699
 
              Baa    -0.5369  -286.465  -102.218   -95.555  0.8370  0.1162 -0.5348
    16 H(1)   Bbb     0.2416   128.919    46.001    43.003 -0.4042  0.7900 -0.4609
              Bcc     0.2953   157.547    56.217    52.552  0.3690  0.6019  0.7082
 

 ---------------------------------------------------------------------------------

 No NMR shielding tensors so no spin-rotation constants.
 Leave Link  601 at Wed Sep 16 21:38:19 2015, MaxMem=   33554432 cpu:       0.3
 Merz-Kollman atomic radii used.
 Atom Element Radius
    1     6    1.50
    2     8    1.40
    3     6    1.50
    4     8    1.40
    5    15    1.80
    6     8    1.40
    7     6    1.50
    8     8    1.40
    9     8    1.40
   10     8    1.40
   11     8    1.40
   12     1    1.20
   13     1    1.20
   14     1    1.20
   15     1    1.20
   16     1    1.20
 Generate VDW surfaces: Layer= 4 Dens= 6 Start= 1.400 Inc= 0.200

 **********************************************************************

            Electrostatic Properties Using The SCF Density

 **********************************************************************

       Atomic Center    1 is at   1.526225  1.555599 -0.167687
       Atomic Center    2 is at   0.546364  2.587863 -0.030048
       Atomic Center    3 is at   0.875811  0.197183  0.100247
       Atomic Center    4 is at  -0.178520 -0.018475 -0.837502
       Atomic Center    5 is at  -1.531311 -0.196187  0.016061
       Atomic Center    6 is at  -1.381376 -1.448620  1.000404
       Atomic Center    7 is at   1.908672 -0.890133 -0.044411
       Atomic Center    8 is at   2.997369 -0.890592  0.739593
       Atomic Center    9 is at   1.756257 -1.761221 -0.866652
       Atomic Center   10 is at  -1.777292  1.028481  0.809182
       Atomic Center   11 is at  -2.768732 -0.444892 -0.983200
       Atomic Center   12 is at   0.471246  0.181002  1.111918
       Atomic Center   13 is at   1.930789  1.571780 -1.179359
       Atomic Center   14 is at   2.331506  1.721490  0.547767
       Atomic Center   15 is at   0.996939  3.424975 -0.206710
       Atomic Center   16 is at  -2.177625 -1.552698  1.502365
      ESP Fit Center   17 is at   1.321380  1.910401  1.891962
      ESP Fit Center   18 is at   1.116535  1.555599  1.891962
      ESP Fit Center   19 is at   2.692922  3.301685 -0.167687
      ESP Fit Center   20 is at   3.585874  1.555599 -0.577377
      ESP Fit Center   21 is at   3.418955  2.367834 -0.577377
      ESP Fit Center   22 is at   3.216709  2.732211 -0.577377
      ESP Fit Center   23 is at   2.945255  3.048418 -0.577377
      ESP Fit Center   24 is at   3.418955  0.743364 -0.577377
      ESP Fit Center   25 is at   3.543713  1.140995 -0.577377
      ESP Fit Center   26 is at   2.782249  3.034305 -0.971323
      ESP Fit Center   27 is at   0.379392  1.769979 -1.913774
      ESP Fit Center   28 is at   0.546364  2.587863  1.929952
      ESP Fit Center   29 is at   0.953871  2.587863  1.887121
      ESP Fit Center   30 is at   0.750118  2.940775  1.887121
      ESP Fit Center   31 is at   0.342611  2.940775  1.887121
      ESP Fit Center   32 is at   0.138857  2.587863  1.887121
      ESP Fit Center   33 is at   0.342611  2.234952  1.887121
      ESP Fit Center   34 is at   0.750118  2.234952  1.887121
      ESP Fit Center   35 is at   1.343568  2.587863  1.760501
      ESP Fit Center   36 is at   1.236763  2.986465  1.760501
      ESP Fit Center   37 is at   0.944966  3.278262  1.760501
      ESP Fit Center   38 is at   0.546364  3.385067  1.760501
      ESP Fit Center   39 is at   0.147762  3.278262  1.760501
      ESP Fit Center   40 is at  -0.144034  2.986465  1.760501
      ESP Fit Center   41 is at  -0.250839  2.587863  1.760501
      ESP Fit Center   42 is at  -0.144034  2.189261  1.760501
      ESP Fit Center   43 is at   0.147762  1.897465  1.760501
      ESP Fit Center   44 is at   0.546364  1.790660  1.760501
      ESP Fit Center   45 is at   1.620627  3.004035  1.555625
      ESP Fit Center   46 is at   1.397746  3.364001  1.555625
      ESP Fit Center   47 is at   1.059881  3.619144  1.555625
      ESP Fit Center   48 is at   0.652663  3.735008  1.555625
      ESP Fit Center   49 is at   0.231088  3.695943  1.555625
      ESP Fit Center   50 is at  -0.147906  3.507226  1.555625
      ESP Fit Center   51 is at  -0.433136  3.194344  1.555625
      ESP Fit Center   52 is at  -0.586079  2.799554  1.555625
      ESP Fit Center   53 is at   0.339074  4.029601  1.281448
      ESP Fit Center   54 is at  -0.058714  3.912800  1.281448
      ESP Fit Center   55 is at  -0.407482  3.688661  1.281448
      ESP Fit Center   56 is at  -0.678975  3.375341  1.281448
      ESP Fit Center   57 is at  -0.851198  2.998225  1.281448
      ESP Fit Center   58 is at  -0.176358  4.123726  0.949952
      ESP Fit Center   59 is at  -0.535605  3.895740  0.949952
      ESP Fit Center   60 is at  -0.826869  3.585576  0.949952
      ESP Fit Center   61 is at  -1.031847  3.212722  0.949952
      ESP Fit Center   62 is at  -0.262426  4.267333  0.575625
      ESP Fit Center   63 is at  -0.615865  4.045253  0.575625
      ESP Fit Center   64 is at  -0.911025  3.750092  0.575625
      ESP Fit Center   65 is at  -1.133105  3.396653  0.575625
      ESP Fit Center   66 is at  -1.270970  3.002658  0.575625
      ESP Fit Center   67 is at  -0.547537  4.201247  0.174828
      ESP Fit Center   68 is at  -0.868792  3.928370  0.174828
      ESP Fit Center   69 is at  -1.123876  3.592813  0.174828
      ESP Fit Center   70 is at  -1.300861  3.210266  0.174828
      ESP Fit Center   71 is at  -0.547537  4.201247 -0.234924
      ESP Fit Center   72 is at  -0.868792  3.928370 -0.234924
      ESP Fit Center   73 is at  -1.123876  3.592813 -0.234924
      ESP Fit Center   74 is at  -1.300861  3.210266 -0.234924
      ESP Fit Center   75 is at  -1.391472  2.798616 -0.234924
      ESP Fit Center   76 is at  -0.615865  4.045253 -0.635721
      ESP Fit Center   77 is at  -0.911025  3.750092 -0.635721
      ESP Fit Center   78 is at  -1.133105  3.396653 -0.635721
      ESP Fit Center   79 is at  -1.270970  3.002658 -0.635721
      ESP Fit Center   80 is at  -1.317706  2.587863 -0.635721
      ESP Fit Center   81 is at  -0.535605  3.895740 -1.010048
      ESP Fit Center   82 is at  -0.826869  3.585576 -1.010048
      ESP Fit Center   83 is at  -1.031847  3.212722 -1.010048
      ESP Fit Center   84 is at  -1.137661  2.800605 -1.010048
      ESP Fit Center   85 is at  -1.137661  2.375122 -1.010048
      ESP Fit Center   86 is at  -0.407482  3.688661 -1.341544
      ESP Fit Center   87 is at  -0.678975  3.375341 -1.341544
      ESP Fit Center   88 is at  -0.851198  2.998225 -1.341544
      ESP Fit Center   89 is at  -0.910199  2.587863 -1.341544
      ESP Fit Center   90 is at  -0.851198  2.177502 -1.341544
      ESP Fit Center   91 is at  -0.147906  3.507226 -1.615721
      ESP Fit Center   92 is at  -0.433136  3.194344 -1.615721
      ESP Fit Center   93 is at  -0.586079  2.799554 -1.615721
      ESP Fit Center   94 is at  -0.586079  2.376173 -1.615721
      ESP Fit Center   95 is at  -0.433136  1.981382 -1.615721
      ESP Fit Center   96 is at   1.236763  2.986465 -1.820597
      ESP Fit Center   97 is at   0.147762  3.278262 -1.820597
      ESP Fit Center   98 is at  -0.144034  2.986465 -1.820597
      ESP Fit Center   99 is at  -0.250839  2.587863 -1.820597
      ESP Fit Center  100 is at  -0.144034  2.189261 -1.820597
      ESP Fit Center  101 is at   0.147762  1.897465 -1.820597
      ESP Fit Center  102 is at   0.750118  2.940775 -1.947217
      ESP Fit Center  103 is at   0.342611  2.940775 -1.947217
      ESP Fit Center  104 is at   0.138857  2.587863 -1.947217
      ESP Fit Center  105 is at   0.342611  2.234952 -1.947217
      ESP Fit Center  106 is at   0.546364  2.587863 -1.990048
      ESP Fit Center  107 is at   1.963724  0.618643  1.846333
      ESP Fit Center  108 is at  -0.593314  1.798860 -1.443176
      ESP Fit Center  109 is at  -0.178520 -1.882546 -1.443176
      ESP Fit Center  110 is at  -0.071938  1.675586 -1.817502
      ESP Fit Center  111 is at  -0.496582  1.648869 -1.817502
      ESP Fit Center  112 is at  -0.901242  1.517388 -1.817502
      ESP Fit Center  113 is at  -0.496582 -1.685819 -1.817502
      ESP Fit Center  114 is at  -0.071938 -1.712535 -1.817502
      ESP Fit Center  115 is at   1.278044 -0.018475 -2.148998
      ESP Fit Center  116 is at   1.219043  0.391887 -2.148998
      ESP Fit Center  117 is at   0.426559  1.306462 -2.148998
      ESP Fit Center  118 is at   0.028771  1.423263 -2.148998
      ESP Fit Center  119 is at  -0.385810  1.423263 -2.148998
      ESP Fit Center  120 is at  -0.783598  1.306462 -2.148998
      ESP Fit Center  121 is at  -1.132366  1.082323 -2.148998
      ESP Fit Center  122 is at  -0.783598 -1.343412 -2.148998
      ESP Fit Center  123 is at  -0.385810 -1.460213 -2.148998
      ESP Fit Center  124 is at   0.028771 -1.460213 -2.148998
      ESP Fit Center  125 is at   0.973540 -0.018475 -2.423176
      ESP Fit Center  126 is at   0.895744  0.397697 -2.423176
      ESP Fit Center  127 is at   0.672862  0.757662 -2.423176
      ESP Fit Center  128 is at   0.334997  1.012806 -2.423176
      ESP Fit Center  129 is at  -0.072221  1.128670 -2.423176
      ESP Fit Center  130 is at  -0.493796  1.089605 -2.423176
      ESP Fit Center  131 is at  -0.872790  0.900888 -2.423176
      ESP Fit Center  132 is at  -1.158020  0.588006 -2.423176
      ESP Fit Center  133 is at  -0.872790 -0.937838 -2.423176
      ESP Fit Center  134 is at  -0.493796 -1.126555 -2.423176
      ESP Fit Center  135 is at  -0.072221 -1.165619 -2.423176
      ESP Fit Center  136 is at   0.334997 -1.049756 -2.423176
      ESP Fit Center  137 is at   0.672862 -0.794612 -2.423176
      ESP Fit Center  138 is at   0.895744 -0.434646 -2.423176
      ESP Fit Center  139 is at   0.618684 -0.018475 -2.628052
      ESP Fit Center  140 is at   0.511879  0.380127 -2.628052
      ESP Fit Center  141 is at   0.220082  0.671924 -2.628052
      ESP Fit Center  142 is at  -0.178520  0.778729 -2.628052
      ESP Fit Center  143 is at  -0.577122  0.671924 -2.628052
      ESP Fit Center  144 is at  -0.868918  0.380127 -2.628052
      ESP Fit Center  145 is at  -0.975723 -0.018475 -2.628052
      ESP Fit Center  146 is at  -0.868918 -0.417077 -2.628052
      ESP Fit Center  147 is at  -0.577122 -0.708874 -2.628052
      ESP Fit Center  148 is at  -0.178520 -0.815679 -2.628052
      ESP Fit Center  149 is at   0.220082 -0.708874 -2.628052
      ESP Fit Center  150 is at   0.511879 -0.417077 -2.628052
      ESP Fit Center  151 is at   0.228987 -0.018475 -2.754672
      ESP Fit Center  152 is at   0.025234  0.334437 -2.754672
      ESP Fit Center  153 is at  -0.382273  0.334437 -2.754672
      ESP Fit Center  154 is at  -0.586027 -0.018475 -2.754672
      ESP Fit Center  155 is at  -0.382273 -0.371386 -2.754672
      ESP Fit Center  156 is at   0.025234 -0.371386 -2.754672
      ESP Fit Center  157 is at  -0.178520 -0.018475 -2.797502
      ESP Fit Center  158 is at  -1.531311 -0.196187  2.536061
      ESP Fit Center  159 is at  -1.116533 -0.196187  2.501692
      ESP Fit Center  160 is at  -1.946090 -0.196187  2.501692
      ESP Fit Center  161 is at  -0.713068 -0.196187  2.399521
      ESP Fit Center  162 is at  -0.822692  0.212934  2.399521
      ESP Fit Center  163 is at  -3.064711  0.014574  2.004696
      ESP Fit Center  164 is at  -3.372799  0.019052  1.722811
      ESP Fit Center  165 is at  -3.630147  0.017244  1.394371
      ESP Fit Center  166 is at  -3.630147 -0.409618  1.394371
      ESP Fit Center  167 is at  -3.799766  0.227861  1.028334
      ESP Fit Center  168 is at  -3.839060 -0.196187  1.028334
      ESP Fit Center  169 is at  -3.799766 -0.620235  1.028334
      ESP Fit Center  170 is at  -3.826876  0.639330  0.634685
      ESP Fit Center  171 is at  -3.937087  0.228016  0.634685
      ESP Fit Center  172 is at  -3.974200 -0.196187  0.634685
      ESP Fit Center  173 is at  -3.937087 -0.620390  0.634685
      ESP Fit Center  174 is at  -3.826876 -1.031704  0.634685
      ESP Fit Center  175 is at  -3.646915 -1.417631  0.634685
      ESP Fit Center  176 is at  -3.819764  0.838259  0.224161
      ESP Fit Center  177 is at  -3.344427 -1.933917  0.224161
      ESP Fit Center  178 is at  -3.612024  1.210130 -0.192038
      ESP Fit Center  179 is at  -2.661950 -2.438675 -0.192038
      ESP Fit Center  180 is at  -3.101570  1.675174 -0.602562
      ESP Fit Center  181 is at  -3.402672  1.374072 -0.602562
      ESP Fit Center  182 is at  -2.366828 -2.491751 -0.602562
      ESP Fit Center  183 is at  -1.955514 -2.601963 -0.602562
      ESP Fit Center  184 is at  -1.531311 -2.639076 -0.602562
      ESP Fit Center  185 is at  -1.107108 -2.601963 -0.602562
      ESP Fit Center  186 is at  -0.695794 -2.491751 -0.602562
      ESP Fit Center  187 is at  -0.309867 -2.311791 -0.602562
      ESP Fit Center  188 is at  -1.318379  2.101717 -0.996211
      ESP Fit Center  189 is at  -1.744243  2.101717 -0.996211
      ESP Fit Center  190 is at  -2.162857  2.023465 -0.996211
      ESP Fit Center  191 is at  -2.559963  1.869625 -0.996211
      ESP Fit Center  192 is at  -2.922041  1.645436 -0.996211
      ESP Fit Center  193 is at  -2.162857 -2.415839 -0.996211
      ESP Fit Center  194 is at  -1.744243 -2.494091 -0.996211
      ESP Fit Center  195 is at  -1.318379 -2.494091 -0.996211
      ESP Fit Center  196 is at  -0.899766 -2.415839 -0.996211
      ESP Fit Center  197 is at  -0.502659 -2.261999 -0.996211
      ESP Fit Center  198 is at  -0.798615  1.782151 -1.362248
      ESP Fit Center  199 is at  -1.211850  1.889145 -1.362248
      ESP Fit Center  200 is at  -1.638164  1.910765 -1.362248
      ESP Fit Center  201 is at  -2.060103  1.846126 -1.362248
      ESP Fit Center  202 is at  -2.460393  1.697875 -1.362248
      ESP Fit Center  203 is at  -2.060103 -2.238500 -1.362248
      ESP Fit Center  204 is at  -1.638164 -2.303139 -1.362248
      ESP Fit Center  205 is at  -1.211850 -2.281519 -1.362248
      ESP Fit Center  206 is at  -0.798615 -2.174525 -1.362248
      ESP Fit Center  207 is at  -0.415377 -1.986537 -1.362248
      ESP Fit Center  208 is at  -1.209363  1.629670 -1.690688
      ESP Fit Center  209 is at  -1.639113  1.654701 -1.690688
      ESP Fit Center  210 is at  -2.063051  1.579949 -1.690688
      ESP Fit Center  211 is at  -2.458323  1.409445 -1.690688
      ESP Fit Center  212 is at  -1.639113 -2.047075 -1.690688
      ESP Fit Center  213 is at  -1.209363 -2.022044 -1.690688
      ESP Fit Center  214 is at  -0.796970 -1.898582 -1.690688
      ESP Fit Center  215 is at  -1.216399  1.319255 -1.972573
      ESP Fit Center  216 is at  -1.636938  1.348021 -1.972573
      ESP Fit Center  217 is at  -2.049643  1.262260 -1.972573
      ESP Fit Center  218 is at  -1.636938 -1.740395 -1.972573
      ESP Fit Center  219 is at  -1.216399 -1.711629 -1.972573
      ESP Fit Center  220 is at  -0.819215 -1.570470 -1.972573
      ESP Fit Center  221 is at  -1.323040  0.984979 -2.200212
      ESP Fit Center  222 is at  -1.739583  0.984979 -2.200212
      ESP Fit Center  223 is at  -1.323040 -1.377353 -2.200212
      ESP Fit Center  224 is at  -0.931617 -1.234887 -2.200212
      ESP Fit Center  225 is at  -1.531311  0.622056 -2.367398
      ESP Fit Center  226 is at  -1.122190 -0.904806 -2.367398
      ESP Fit Center  227 is at  -1.323922  0.163022 -2.469569
      ESP Fit Center  228 is at  -1.323922 -0.555396 -2.469569
      ESP Fit Center  229 is at  -1.531311 -0.196187 -2.503939
      ESP Fit Center  230 is at  -0.973869 -1.448620  2.917573
      ESP Fit Center  231 is at  -1.177623 -1.095709  2.917573
      ESP Fit Center  232 is at  -1.177623 -1.801532  2.917573
      ESP Fit Center  233 is at  -0.584172 -1.448620  2.790953
      ESP Fit Center  234 is at  -0.690977 -1.050018  2.790953
      ESP Fit Center  235 is at  -0.982774 -0.758222  2.790953
      ESP Fit Center  236 is at  -1.381376 -0.651416  2.790953
      ESP Fit Center  237 is at  -0.982774 -2.139019  2.790953
      ESP Fit Center  238 is at  -0.690977 -1.847222  2.790953
      ESP Fit Center  239 is at  -0.229317 -1.448620  2.586077
      ESP Fit Center  240 is at  -0.307113 -1.032449  2.586077
      ESP Fit Center  241 is at  -0.529994 -0.672483  2.586077
      ESP Fit Center  242 is at  -0.867859 -0.417339  2.586077
      ESP Fit Center  243 is at  -1.275078 -0.301476  2.586077
      ESP Fit Center  244 is at  -1.696652 -0.340540  2.586077
      ESP Fit Center  245 is at  -1.275078 -2.595765  2.586077
      ESP Fit Center  246 is at  -0.867859 -2.479901  2.586077
      ESP Fit Center  247 is at  -0.529994 -2.224757  2.586077
      ESP Fit Center  248 is at  -0.307113 -1.864792  2.586077
      ESP Fit Center  249 is at   0.075188 -1.448620  2.311900
      ESP Fit Center  250 is at   0.016187 -1.038259  2.311900
      ESP Fit Center  251 is at  -1.174086 -2.890358  2.311900
      ESP Fit Center  252 is at  -0.776298 -2.773557  2.311900
      ESP Fit Center  253 is at  -0.427530 -2.549418  2.311900
      ESP Fit Center  254 is at  -0.156037 -2.236098  2.311900
      ESP Fit Center  255 is at   0.016187 -1.858982  2.311900
      ESP Fit Center  256 is at   0.316034 -1.448620  1.980404
      ESP Fit Center  257 is at  -1.699439 -3.115964  1.980404
      ESP Fit Center  258 is at  -1.274795 -3.142681  1.980404
      ESP Fit Center  259 is at  -0.856848 -3.062953  1.980404
      ESP Fit Center  260 is at  -0.471859 -2.881791  1.980404
      ESP Fit Center  261 is at  -0.144018 -2.610577  1.980404
      ESP Fit Center  262 is at   0.106075 -2.266354  1.980404
      ESP Fit Center  263 is at   0.262706 -1.870749  1.980404
      ESP Fit Center  264 is at   0.482695 -1.448620  1.606077
      ESP Fit Center  265 is at  -1.796171 -3.265955  1.606077
      ESP Fit Center  266 is at  -1.381376 -3.312691  1.606077
      ESP Fit Center  267 is at  -0.966581 -3.265955  1.606077
      ESP Fit Center  268 is at  -0.572586 -3.128090  1.606077
      ESP Fit Center  269 is at  -0.219147 -2.906009  1.606077
      ESP Fit Center  270 is at   0.076013 -2.610849  1.606077
      ESP Fit Center  271 is at   0.298094 -2.257410  1.606077
      ESP Fit Center  272 is at   0.435958 -1.863415  1.606077
      ESP Fit Center  273 is at  -2.102873 -3.259440  1.205280
      ESP Fit Center  274 is at  -1.696732 -3.372205  1.205280
      ESP Fit Center  275 is at  -1.275845 -3.395024  1.205280
      ESP Fit Center  276 is at  -0.859893 -3.326833  1.205280
      ESP Fit Center  277 is at  -0.468325 -3.170818  1.205280
      ESP Fit Center  278 is at  -0.119450 -2.934275  1.205280
      ESP Fit Center  279 is at   0.170418 -2.628264  1.205280
      ESP Fit Center  280 is at   0.387727 -2.267095  1.205280
      ESP Fit Center  281 is at   0.522314 -1.867654  1.205280
      ESP Fit Center  282 is at  -2.475277 -3.062004  0.795528
      ESP Fit Center  283 is at  -2.102873 -3.259440  0.795528
      ESP Fit Center  284 is at  -1.696732 -3.372205  0.795528
      ESP Fit Center  285 is at  -1.275845 -3.395024  0.795528
      ESP Fit Center  286 is at  -0.859893 -3.326833  0.795528
      ESP Fit Center  287 is at  -0.468325 -3.170818  0.795528
      ESP Fit Center  288 is at  -0.119450 -2.934275  0.795528
      ESP Fit Center  289 is at   0.170418 -2.628264  0.795528
      ESP Fit Center  290 is at   0.387727 -2.267095  0.795528
      ESP Fit Center  291 is at  -2.543605 -2.906009  0.394731
      ESP Fit Center  292 is at  -2.190166 -3.128090  0.394731
      ESP Fit Center  293 is at  -1.796171 -3.265955  0.394731
      ESP Fit Center  294 is at  -1.381376 -3.312691  0.394731
      ESP Fit Center  295 is at  -0.966581 -3.265955  0.394731
      ESP Fit Center  296 is at  -0.572586 -3.128090  0.394731
      ESP Fit Center  297 is at  -0.219147 -2.906009  0.394731
      ESP Fit Center  298 is at   0.076013 -2.610849  0.394731
      ESP Fit Center  299 is at   0.298094 -2.257410  0.394731
      ESP Fit Center  300 is at  -2.754610 -2.446333  0.020404
      ESP Fit Center  301 is at  -2.463346 -2.756497  0.020404
      ESP Fit Center  302 is at  -2.104098 -2.984483  0.020404
      ESP Fit Center  303 is at  -1.699439 -3.115964  0.020404
      ESP Fit Center  304 is at  -1.274795 -3.142681  0.020404
      ESP Fit Center  305 is at  -0.856848 -3.062953  0.020404
      ESP Fit Center  306 is at  -0.471859 -2.881791  0.020404
      ESP Fit Center  307 is at  -0.144018 -2.610577  0.020404
      ESP Fit Center  308 is at  -1.986455 -2.773557 -0.311092
      ESP Fit Center  309 is at  -1.588667 -2.890358 -0.311092
      ESP Fit Center  310 is at  -1.174086 -2.890358 -0.311092
      ESP Fit Center  311 is at  -0.776298 -2.773557 -0.311092
      ESP Fit Center  312 is at  -0.427530 -2.549418 -0.311092
      ESP Fit Center  313 is at   1.498982 -0.890133  2.015238
      ESP Fit Center  314 is at   1.212704 -1.291950  1.895736
      ESP Fit Center  315 is at   1.506854 -1.586101  1.895736
      ESP Fit Center  316 is at   0.916726 -1.504320  1.701675
      ESP Fit Center  317 is at   1.205580 -1.821177  1.701675
      ESP Fit Center  318 is at   1.589390 -2.012292  1.701675
      ESP Fit Center  319 is at   0.659474 -1.692943  1.440513
      ESP Fit Center  320 is at   0.936253 -2.012363  1.440513
      ESP Fit Center  321 is at   1.291812 -2.240867  1.440513
      ESP Fit Center  322 is at   1.697345 -2.359942  1.440513
      ESP Fit Center  323 is at   0.601708 -2.048002  1.122286
      ESP Fit Center  324 is at   0.916782 -2.327133  1.122286
      ESP Fit Center  325 is at   1.289501 -2.522751  1.122286
      ESP Fit Center  326 is at   1.698205 -2.623488  1.122286
      ESP Fit Center  327 is at   2.119140 -2.623488  1.122286
      ESP Fit Center  328 is at   0.500134 -2.224371  0.759224
      ESP Fit Center  329 is at   0.819887 -2.495971  0.759224
      ESP Fit Center  330 is at   2.013710 -2.827434  0.759224
      ESP Fit Center  331 is at   3.453210  0.283994 -0.848046
      ESP Fit Center  332 is at   3.654758 -0.890133 -1.211109
      ESP Fit Center  333 is at   3.604020 -0.472267 -1.211109
      ESP Fit Center  334 is at   3.454755 -0.078686 -1.211109
      ESP Fit Center  335 is at   3.215636  0.267737 -1.211109
      ESP Fit Center  336 is at   3.393596 -0.890133 -1.529335
      ESP Fit Center  337 is at   3.333446 -0.471781 -1.529335
      ESP Fit Center  338 is at   3.157870 -0.087322 -1.529335
      ESP Fit Center  339 is at   2.996585 -0.468673 -1.790497
      ESP Fit Center  340 is at   2.770872 -0.104134 -1.790497
      ESP Fit Center  341 is at   2.310490 -0.194164 -1.984558
      ESP Fit Center  342 is at   1.908672 -0.086497 -1.984558
      ESP Fit Center  343 is at   2.997369 -0.890592  2.699593
      ESP Fit Center  344 is at   3.404876 -0.890592  2.656763
      ESP Fit Center  345 is at   3.201123 -0.537680  2.656763
      ESP Fit Center  346 is at   2.793616 -0.537680  2.656763
      ESP Fit Center  347 is at   2.589862 -0.890592  2.656763
      ESP Fit Center  348 is at   2.793616 -1.243503  2.656763
      ESP Fit Center  349 is at   3.201123 -1.243503  2.656763
      ESP Fit Center  350 is at   3.794573 -0.890592  2.530142
      ESP Fit Center  351 is at   3.687768 -0.491990  2.530142
      ESP Fit Center  352 is at   3.395971 -0.200193  2.530142
      ESP Fit Center  353 is at   2.997369 -0.093388  2.530142
      ESP Fit Center  354 is at   2.598767 -0.200193  2.530142
      ESP Fit Center  355 is at   2.306971 -0.491990  2.530142
      ESP Fit Center  356 is at   2.200166 -0.890592  2.530142
      ESP Fit Center  357 is at   2.306971 -1.289193  2.530142
      ESP Fit Center  358 is at   2.598767 -1.580990  2.530142
      ESP Fit Center  359 is at   2.997369 -1.687795  2.530142
      ESP Fit Center  360 is at   3.395971 -1.580990  2.530142
      ESP Fit Center  361 is at   3.687768 -1.289193  2.530142
      ESP Fit Center  362 is at   4.149428 -0.890592  2.325267
      ESP Fit Center  363 is at   4.071632 -0.474420  2.325267
      ESP Fit Center  364 is at   3.848751 -0.114454  2.325267
      ESP Fit Center  365 is at   3.510886  0.140690  2.325267
      ESP Fit Center  366 is at   3.103668  0.256553  2.325267
      ESP Fit Center  367 is at   2.682093  0.217488  2.325267
      ESP Fit Center  368 is at   2.303099  0.028771  2.325267
      ESP Fit Center  369 is at   2.017869 -0.284111  2.325267
      ESP Fit Center  370 is at   1.864926 -0.678901  2.325267
      ESP Fit Center  371 is at   1.864926 -1.102282  2.325267
      ESP Fit Center  372 is at   2.017869 -1.497072  2.325267
      ESP Fit Center  373 is at   2.303099 -1.809955  2.325267
      ESP Fit Center  374 is at   2.682093 -1.998671  2.325267
      ESP Fit Center  375 is at   3.103668 -2.037736  2.325267
      ESP Fit Center  376 is at   3.510886 -1.921873  2.325267
      ESP Fit Center  377 is at   3.848751 -1.666729  2.325267
      ESP Fit Center  378 is at   4.071632 -1.306763  2.325267
      ESP Fit Center  379 is at   4.453933 -0.890592  2.051089
      ESP Fit Center  380 is at   4.394932 -0.480230  2.051089
      ESP Fit Center  381 is at   4.222709 -0.103114  2.051089
      ESP Fit Center  382 is at   3.951216  0.210206  2.051089
      ESP Fit Center  383 is at   3.602448  0.434346  2.051089
      ESP Fit Center  384 is at   3.204660  0.551147  2.051089
      ESP Fit Center  385 is at   2.790079  0.551147  2.051089
      ESP Fit Center  386 is at   2.392291  0.434346  2.051089
      ESP Fit Center  387 is at   2.043523  0.210206  2.051089
      ESP Fit Center  388 is at   1.540805 -0.890592  2.051089
      ESP Fit Center  389 is at   1.599807 -1.300953  2.051089
      ESP Fit Center  390 is at   1.772030 -1.678069  2.051089
      ESP Fit Center  391 is at   2.043523 -1.991389  2.051089
      ESP Fit Center  392 is at   2.392291 -2.215529  2.051089
      ESP Fit Center  393 is at   2.790079 -2.332330  2.051089
      ESP Fit Center  394 is at   3.204660 -2.332330  2.051089
      ESP Fit Center  395 is at   3.602448 -2.215529  2.051089
      ESP Fit Center  396 is at   3.951216 -1.991389  2.051089
      ESP Fit Center  397 is at   4.222709 -1.678069  2.051089
      ESP Fit Center  398 is at   4.394932 -1.300953  2.051089
      ESP Fit Center  399 is at   4.694779 -0.890592  1.719593
      ESP Fit Center  400 is at   4.641452 -0.468463  1.719593
      ESP Fit Center  401 is at   4.484821 -0.072858  1.719593
      ESP Fit Center  402 is at   4.234728  0.271365  1.719593
      ESP Fit Center  403 is at   3.906887  0.542579  1.719593
      ESP Fit Center  404 is at   3.521898  0.723741  1.719593
      ESP Fit Center  405 is at   1.915400 -2.198468  1.719593
      ESP Fit Center  406 is at   2.274647 -2.426454  1.719593
      ESP Fit Center  407 is at   2.679306 -2.557936  1.719593
      ESP Fit Center  408 is at   3.103951 -2.584652  1.719593
      ESP Fit Center  409 is at   3.521898 -2.504924  1.719593
      ESP Fit Center  410 is at   3.906887 -2.323762  1.719593
      ESP Fit Center  411 is at   4.234728 -2.052548  1.719593
      ESP Fit Center  412 is at   4.484821 -1.708325  1.719593
      ESP Fit Center  413 is at   4.641452 -1.312720  1.719593
      ESP Fit Center  414 is at   4.861440 -0.890592  1.345267
      ESP Fit Center  415 is at   4.814704 -0.475797  1.345267
      ESP Fit Center  416 is at   4.676839 -0.081802  1.345267
      ESP Fit Center  417 is at   4.454759  0.271638  1.345267
      ESP Fit Center  418 is at   4.159598  0.566798  1.345267
      ESP Fit Center  419 is at   3.806159  0.788878  1.345267
      ESP Fit Center  420 is at   2.188579 -2.570061  1.345267
      ESP Fit Center  421 is at   2.582575 -2.707926  1.345267
      ESP Fit Center  422 is at   2.997369 -2.754662  1.345267
      ESP Fit Center  423 is at   3.412164 -2.707926  1.345267
      ESP Fit Center  424 is at   3.806159 -2.570061  1.345267
      ESP Fit Center  425 is at   4.159598 -2.347981  1.345267
      ESP Fit Center  426 is at   4.454759 -2.052821  1.345267
      ESP Fit Center  427 is at   4.676839 -1.699382  1.345267
      ESP Fit Center  428 is at   4.814704 -1.305386  1.345267
      ESP Fit Center  429 is at   4.946632 -0.890592  0.944469
      ESP Fit Center  430 is at   4.901060 -0.471558  0.944469
      ESP Fit Center  431 is at   4.766472 -0.072117  0.944469
      ESP Fit Center  432 is at   4.549164  0.289052  0.944469
      ESP Fit Center  433 is at   4.259295  0.595063  0.944469
      ESP Fit Center  434 is at   3.910421  0.831606  0.944469
      ESP Fit Center  435 is at   2.682014 -2.814176  0.944469
      ESP Fit Center  436 is at   3.102900 -2.836996  0.944469
      ESP Fit Center  437 is at   3.518852 -2.768804  0.944469
      ESP Fit Center  438 is at   3.910421 -2.612789  0.944469
      ESP Fit Center  439 is at   4.259295 -2.376246  0.944469
      ESP Fit Center  440 is at   4.549164 -2.070235  0.944469
      ESP Fit Center  441 is at   4.766472 -1.709066  0.944469
      ESP Fit Center  442 is at   4.901060 -1.309625  0.944469
      ESP Fit Center  443 is at   4.946632 -0.890592  0.534717
      ESP Fit Center  444 is at   4.901060 -0.471558  0.534717
      ESP Fit Center  445 is at   4.766472 -0.072117  0.534717
      ESP Fit Center  446 is at   4.549164  0.289052  0.534717
      ESP Fit Center  447 is at   4.259295  0.595063  0.534717
      ESP Fit Center  448 is at   3.910421  0.831606  0.534717
      ESP Fit Center  449 is at   2.682014 -2.814176  0.534717
      ESP Fit Center  450 is at   3.102900 -2.836996  0.534717
      ESP Fit Center  451 is at   3.518852 -2.768804  0.534717
      ESP Fit Center  452 is at   3.910421 -2.612789  0.534717
      ESP Fit Center  453 is at   4.259295 -2.376246  0.534717
      ESP Fit Center  454 is at   4.549164 -2.070235  0.534717
      ESP Fit Center  455 is at   4.766472 -1.709066  0.534717
      ESP Fit Center  456 is at   4.901060 -1.309625  0.534717
      ESP Fit Center  457 is at   4.861440 -0.890592  0.133920
      ESP Fit Center  458 is at   4.814704 -0.475797  0.133920
      ESP Fit Center  459 is at   4.676839 -0.081802  0.133920
      ESP Fit Center  460 is at   4.454759  0.271638  0.133920
      ESP Fit Center  461 is at   4.159598  0.566798  0.133920
      ESP Fit Center  462 is at   3.806159  0.788878  0.133920
      ESP Fit Center  463 is at   3.412164 -2.707926  0.133920
      ESP Fit Center  464 is at   3.806159 -2.570061  0.133920
      ESP Fit Center  465 is at   4.159598 -2.347981  0.133920
      ESP Fit Center  466 is at   4.454759 -2.052821  0.133920
      ESP Fit Center  467 is at   4.676839 -1.699382  0.133920
      ESP Fit Center  468 is at   4.814704 -1.305386  0.133920
      ESP Fit Center  469 is at   4.694779 -0.890592 -0.240407
      ESP Fit Center  470 is at   4.641452 -0.468463 -0.240407
      ESP Fit Center  471 is at   4.484821 -0.072858 -0.240407
      ESP Fit Center  472 is at   4.234728  0.271365 -0.240407
      ESP Fit Center  473 is at   3.906887  0.542579 -0.240407
      ESP Fit Center  474 is at   3.521898  0.723741 -0.240407
      ESP Fit Center  475 is at   3.521898 -2.504924 -0.240407
      ESP Fit Center  476 is at   3.906887 -2.323762 -0.240407
      ESP Fit Center  477 is at   4.234728 -2.052548 -0.240407
      ESP Fit Center  478 is at   4.484821 -1.708325 -0.240407
      ESP Fit Center  479 is at   4.641452 -1.312720 -0.240407
      ESP Fit Center  480 is at   4.453933 -0.890592 -0.571903
      ESP Fit Center  481 is at   4.394932 -0.480230 -0.571903
      ESP Fit Center  482 is at   4.222709 -0.103114 -0.571903
      ESP Fit Center  483 is at   3.951216  0.210206 -0.571903
      ESP Fit Center  484 is at   3.602448  0.434346 -0.571903
      ESP Fit Center  485 is at   3.951216 -1.991389 -0.571903
      ESP Fit Center  486 is at   4.222709 -1.678069 -0.571903
      ESP Fit Center  487 is at   4.394932 -1.300953 -0.571903
      ESP Fit Center  488 is at   4.149428 -0.890592 -0.846080
      ESP Fit Center  489 is at   4.071632 -0.474420 -0.846080
      ESP Fit Center  490 is at   3.848751 -0.114454 -0.846080
      ESP Fit Center  491 is at   3.848751 -1.666729 -0.846080
      ESP Fit Center  492 is at   4.071632 -1.306763 -0.846080
      ESP Fit Center  493 is at   3.794573 -0.890592 -1.050956
      ESP Fit Center  494 is at   1.061986 -2.680584  0.719021
      ESP Fit Center  495 is at   1.440981 -2.869301  0.719021
      ESP Fit Center  496 is at   1.862555 -2.908366  0.719021
      ESP Fit Center  497 is at   0.530917 -2.548699  0.444844
      ESP Fit Center  498 is at   0.802410 -2.862019  0.444844
      ESP Fit Center  499 is at   1.151178 -3.086158  0.444844
      ESP Fit Center  500 is at   1.548966 -3.202959  0.444844
      ESP Fit Center  501 is at   1.963547 -3.202959  0.444844
      ESP Fit Center  502 is at   2.361335 -3.086158  0.444844
      ESP Fit Center  503 is at   2.710103 -2.862019  0.444844
      ESP Fit Center  504 is at   0.178045 -2.386079  0.113348
      ESP Fit Center  505 is at   0.383023 -2.758934  0.113348
      ESP Fit Center  506 is at   0.674287 -3.069098  0.113348
      ESP Fit Center  507 is at   1.033535 -3.297083  0.113348
      ESP Fit Center  508 is at   1.438194 -3.428565  0.113348
      ESP Fit Center  509 is at   1.862838 -3.455281  0.113348
      ESP Fit Center  510 is at   2.280785 -3.375554  0.113348
      ESP Fit Center  511 is at   2.665774 -3.194392  0.113348
      ESP Fit Center  512 is at   2.993615 -2.923178  0.113348
      ESP Fit Center  513 is at   0.076787 -2.570011 -0.260979
      ESP Fit Center  514 is at   0.298868 -2.923450 -0.260979
      ESP Fit Center  515 is at   0.594028 -3.218610 -0.260979
      ESP Fit Center  516 is at   0.947467 -3.440691 -0.260979
      ESP Fit Center  517 is at   1.341462 -3.578556 -0.260979
      ESP Fit Center  518 is at   1.756257 -3.625292 -0.260979
      ESP Fit Center  519 is at   2.171052 -3.578556 -0.260979
      ESP Fit Center  520 is at   2.565047 -3.440691 -0.260979
      ESP Fit Center  521 is at   2.918486 -3.218610 -0.260979
      ESP Fit Center  522 is at   3.213646 -2.923450 -0.260979
      ESP Fit Center  523 is at   3.435726 -2.570011 -0.260979
      ESP Fit Center  524 is at  -0.090968 -2.383624 -0.661776
      ESP Fit Center  525 is at   0.086017 -2.766171 -0.661776
      ESP Fit Center  526 is at   0.341101 -3.101728 -0.661776
      ESP Fit Center  527 is at   0.662356 -3.374605 -0.661776
      ESP Fit Center  528 is at   1.034760 -3.572041 -0.661776
      ESP Fit Center  529 is at   1.440901 -3.684805 -0.661776
      ESP Fit Center  530 is at   1.861788 -3.707625 -0.661776
      ESP Fit Center  531 is at   2.277740 -3.639433 -0.661776
      ESP Fit Center  532 is at   2.669308 -3.483418 -0.661776
      ESP Fit Center  533 is at   3.018183 -3.246875 -0.661776
      ESP Fit Center  534 is at   3.308051 -2.940865 -0.661776
      ESP Fit Center  535 is at   3.525360 -2.579695 -0.661776
      ESP Fit Center  536 is at   3.659947 -2.180255 -0.661776
      ESP Fit Center  537 is at   3.705520 -1.761221 -1.071528
      ESP Fit Center  538 is at  -0.090968 -2.383624 -1.071528
      ESP Fit Center  539 is at   0.086017 -2.766171 -1.071528
      ESP Fit Center  540 is at   0.341101 -3.101728 -1.071528
      ESP Fit Center  541 is at   0.662356 -3.374605 -1.071528
      ESP Fit Center  542 is at   1.034760 -3.572041 -1.071528
      ESP Fit Center  543 is at   1.440901 -3.684805 -1.071528
      ESP Fit Center  544 is at   1.861788 -3.707625 -1.071528
      ESP Fit Center  545 is at   2.277740 -3.639433 -1.071528
      ESP Fit Center  546 is at   2.669308 -3.483418 -1.071528
      ESP Fit Center  547 is at   3.018183 -3.246875 -1.071528
      ESP Fit Center  548 is at   3.308051 -2.940865 -1.071528
      ESP Fit Center  549 is at   3.525360 -2.579695 -1.071528
      ESP Fit Center  550 is at   3.659947 -2.180255 -1.071528
      ESP Fit Center  551 is at   3.620328 -1.761221 -1.472326
      ESP Fit Center  552 is at   3.573591 -1.346426 -1.472326
      ESP Fit Center  553 is at  -0.061078 -2.176016 -1.472326
      ESP Fit Center  554 is at   0.076787 -2.570011 -1.472326
      ESP Fit Center  555 is at   0.298868 -2.923450 -1.472326
      ESP Fit Center  556 is at   0.594028 -3.218610 -1.472326
      ESP Fit Center  557 is at   0.947467 -3.440691 -1.472326
      ESP Fit Center  558 is at   1.341462 -3.578556 -1.472326
      ESP Fit Center  559 is at   1.756257 -3.625292 -1.472326
      ESP Fit Center  560 is at   2.171052 -3.578556 -1.472326
      ESP Fit Center  561 is at   2.565047 -3.440691 -1.472326
      ESP Fit Center  562 is at   2.918486 -3.218610 -1.472326
      ESP Fit Center  563 is at   3.213646 -2.923450 -1.472326
      ESP Fit Center  564 is at   3.435726 -2.570011 -1.472326
      ESP Fit Center  565 is at   3.573591 -2.176016 -1.472326
      ESP Fit Center  566 is at   3.453667 -1.761221 -1.846652
      ESP Fit Center  567 is at   3.400339 -1.339092 -1.846652
      ESP Fit Center  568 is at   3.243708 -0.943488 -1.846652
      ESP Fit Center  569 is at   2.993615 -0.599264 -1.846652
      ESP Fit Center  570 is at   0.072232 -1.973963 -1.846652
      ESP Fit Center  571 is at   0.178045 -2.386079 -1.846652
      ESP Fit Center  572 is at   0.383023 -2.758934 -1.846652
      ESP Fit Center  573 is at   0.674287 -3.069098 -1.846652
      ESP Fit Center  574 is at   1.033535 -3.297083 -1.846652
      ESP Fit Center  575 is at   1.438194 -3.428565 -1.846652
      ESP Fit Center  576 is at   1.862838 -3.455281 -1.846652
      ESP Fit Center  577 is at   2.280785 -3.375554 -1.846652
      ESP Fit Center  578 is at   2.665774 -3.194392 -1.846652
      ESP Fit Center  579 is at   2.993615 -2.923178 -1.846652
      ESP Fit Center  580 is at   3.243708 -2.578954 -1.846652
      ESP Fit Center  581 is at   3.400339 -2.183350 -1.846652
      ESP Fit Center  582 is at   3.212821 -1.761221 -2.178148
      ESP Fit Center  583 is at   3.153820 -1.350860 -2.178148
      ESP Fit Center  584 is at   2.981596 -0.973743 -2.178148
      ESP Fit Center  585 is at   2.710103 -0.660424 -2.178148
      ESP Fit Center  586 is at   2.361335 -0.436284 -2.178148
      ESP Fit Center  587 is at   1.963547 -0.319483 -2.178148
      ESP Fit Center  588 is at   1.548966 -0.319483 -2.178148
      ESP Fit Center  589 is at   0.358694 -1.350860 -2.178148
      ESP Fit Center  590 is at   0.299693 -1.761221 -2.178148
      ESP Fit Center  591 is at   0.358694 -2.171583 -2.178148
      ESP Fit Center  592 is at   0.530917 -2.548699 -2.178148
      ESP Fit Center  593 is at   0.802410 -2.862019 -2.178148
      ESP Fit Center  594 is at   1.151178 -3.086158 -2.178148
      ESP Fit Center  595 is at   1.548966 -3.202959 -2.178148
      ESP Fit Center  596 is at   1.963547 -3.202959 -2.178148
      ESP Fit Center  597 is at   2.361335 -3.086158 -2.178148
      ESP Fit Center  598 is at   2.710103 -2.862019 -2.178148
      ESP Fit Center  599 is at   2.981596 -2.548699 -2.178148
      ESP Fit Center  600 is at   3.153820 -2.171583 -2.178148
      ESP Fit Center  601 is at   2.908316 -1.761221 -2.452326
      ESP Fit Center  602 is at   2.830520 -1.345049 -2.452326
      ESP Fit Center  603 is at   2.607639 -0.985084 -2.452326
      ESP Fit Center  604 is at   2.269774 -0.729940 -2.452326
      ESP Fit Center  605 is at   1.862555 -0.614076 -2.452326
      ESP Fit Center  606 is at   1.440981 -0.653141 -2.452326
      ESP Fit Center  607 is at   1.061986 -0.841858 -2.452326
      ESP Fit Center  608 is at   0.776756 -1.154740 -2.452326
      ESP Fit Center  609 is at   0.623814 -1.549531 -2.452326
      ESP Fit Center  610 is at   0.623814 -1.972911 -2.452326
      ESP Fit Center  611 is at   0.776756 -2.367702 -2.452326
      ESP Fit Center  612 is at   1.061986 -2.680584 -2.452326
      ESP Fit Center  613 is at   1.440981 -2.869301 -2.452326
      ESP Fit Center  614 is at   1.862555 -2.908366 -2.452326
      ESP Fit Center  615 is at   2.269774 -2.792502 -2.452326
      ESP Fit Center  616 is at   2.607639 -2.537358 -2.452326
      ESP Fit Center  617 is at   2.830520 -2.177393 -2.452326
      ESP Fit Center  618 is at   2.553461 -1.761221 -2.657201
      ESP Fit Center  619 is at   2.446656 -1.362619 -2.657201
      ESP Fit Center  620 is at   2.154859 -1.070822 -2.657201
      ESP Fit Center  621 is at   1.756257 -0.964017 -2.657201
      ESP Fit Center  622 is at   1.357655 -1.070822 -2.657201
      ESP Fit Center  623 is at   1.065858 -1.362619 -2.657201
      ESP Fit Center  624 is at   0.959053 -1.761221 -2.657201
      ESP Fit Center  625 is at   1.065858 -2.159823 -2.657201
      ESP Fit Center  626 is at   1.357655 -2.451620 -2.657201
      ESP Fit Center  627 is at   1.756257 -2.558425 -2.657201
      ESP Fit Center  628 is at   2.154859 -2.451620 -2.657201
      ESP Fit Center  629 is at   2.446656 -2.159823 -2.657201
      ESP Fit Center  630 is at   2.163764 -1.761221 -2.783822
      ESP Fit Center  631 is at   1.960010 -1.408310 -2.783822
      ESP Fit Center  632 is at   1.552503 -1.408310 -2.783822
      ESP Fit Center  633 is at   1.348750 -1.761221 -2.783822
      ESP Fit Center  634 is at   1.552503 -2.114132 -2.783822
      ESP Fit Center  635 is at   1.960010 -2.114132 -2.783822
      ESP Fit Center  636 is at   1.756257 -1.761221 -2.826652
      ESP Fit Center  637 is at  -1.777292  1.028481  2.769182
      ESP Fit Center  638 is at  -1.369785  1.028481  2.726351
      ESP Fit Center  639 is at  -1.573539  1.381392  2.726351
      ESP Fit Center  640 is at  -1.981045  1.381392  2.726351
      ESP Fit Center  641 is at  -2.184799  1.028481  2.726351
      ESP Fit Center  642 is at  -1.981045  0.675570  2.726351
      ESP Fit Center  643 is at  -1.573539  0.675570  2.726351
      ESP Fit Center  644 is at  -0.980088  1.028481  2.599731
      ESP Fit Center  645 is at  -1.086893  1.427083  2.599731
      ESP Fit Center  646 is at  -1.378690  1.718880  2.599731
      ESP Fit Center  647 is at  -1.777292  1.825685  2.599731
      ESP Fit Center  648 is at  -2.175894  1.718880  2.599731
      ESP Fit Center  649 is at  -2.467691  1.427083  2.599731
      ESP Fit Center  650 is at  -2.574496  1.028481  2.599731
      ESP Fit Center  651 is at  -2.467691  0.629879  2.599731
      ESP Fit Center  652 is at  -2.175894  0.338082  2.599731
      ESP Fit Center  653 is at  -1.777292  0.231277  2.599731
      ESP Fit Center  654 is at  -1.378690  0.338082  2.599731
      ESP Fit Center  655 is at  -1.086893  0.629879  2.599731
      ESP Fit Center  656 is at  -0.625233  1.028481  2.394855
      ESP Fit Center  657 is at  -0.703029  1.444653  2.394855
      ESP Fit Center  658 is at  -0.925910  1.804618  2.394855
      ESP Fit Center  659 is at  -1.263775  2.059762  2.394855
      ESP Fit Center  660 is at  -1.670993  2.175626  2.394855
      ESP Fit Center  661 is at  -2.092568  2.136561  2.394855
      ESP Fit Center  662 is at  -2.471563  1.947844  2.394855
      ESP Fit Center  663 is at  -2.756792  1.634962  2.394855
      ESP Fit Center  664 is at  -2.909735  1.240171  2.394855
      ESP Fit Center  665 is at  -2.909735  0.816791  2.394855
      ESP Fit Center  666 is at  -2.756792  0.422000  2.394855
      ESP Fit Center  667 is at  -2.471563  0.109118  2.394855
      ESP Fit Center  668 is at  -0.703029  0.612309  2.394855
      ESP Fit Center  669 is at  -0.379729  1.438843  2.120678
      ESP Fit Center  670 is at  -0.551952  1.815959  2.120678
      ESP Fit Center  671 is at  -0.823446  2.129279  2.120678
      ESP Fit Center  672 is at  -1.172213  2.353418  2.120678
      ESP Fit Center  673 is at  -1.570001  2.470219  2.120678
      ESP Fit Center  674 is at  -1.984583  2.470219  2.120678
      ESP Fit Center  675 is at  -2.382370  2.353418  2.120678
      ESP Fit Center  676 is at  -2.731138  2.129279  2.120678
      ESP Fit Center  677 is at  -3.002631  1.815959  2.120678
      ESP Fit Center  678 is at  -3.174855  1.438843  2.120678
      ESP Fit Center  679 is at  -3.233856  1.028481  2.120678
      ESP Fit Center  680 is at  -3.174855  0.618120  2.120678
      ESP Fit Center  681 is at  -3.002631  0.241003  2.120678
      ESP Fit Center  682 is at  -0.289840  1.846214  1.789182
      ESP Fit Center  683 is at  -0.539934  2.190438  1.789182
      ESP Fit Center  684 is at  -0.867774  2.461652  1.789182
      ESP Fit Center  685 is at  -1.252764  2.642814  1.789182
      ESP Fit Center  686 is at  -1.670711  2.722541  1.789182
      ESP Fit Center  687 is at  -2.095355  2.695825  1.789182
      ESP Fit Center  688 is at  -2.500014  2.564343  1.789182
      ESP Fit Center  689 is at  -2.859262  2.336358  1.789182
      ESP Fit Center  690 is at  -3.150525  2.026194  1.789182
      ESP Fit Center  691 is at  -3.355504  1.653339  1.789182
      ESP Fit Center  692 is at  -3.461317  1.241223  1.789182
      ESP Fit Center  693 is at  -3.461317  0.815739  1.789182
      ESP Fit Center  694 is at  -3.355504  0.403623  1.789182
      ESP Fit Center  695 is at  -0.968502  2.707951  1.414855
      ESP Fit Center  696 is at  -1.362497  2.845816  1.414855
      ESP Fit Center  697 is at  -1.777292  2.892552  1.414855
      ESP Fit Center  698 is at  -2.192087  2.845816  1.414855
      ESP Fit Center  699 is at  -2.586082  2.707951  1.414855
      ESP Fit Center  700 is at  -2.939521  2.485870  1.414855
      ESP Fit Center  701 is at  -3.234681  2.190710  1.414855
      ESP Fit Center  702 is at  -3.456762  1.837271  1.414855
      ESP Fit Center  703 is at  -3.594627  1.443276  1.414855
      ESP Fit Center  704 is at  -3.641363  1.028481  1.414855
      ESP Fit Center  705 is at  -3.594627  0.613686  1.414855
      ESP Fit Center  706 is at  -1.255809  2.906693  1.014057
      ESP Fit Center  707 is at  -1.671761  2.974885  1.014057
      ESP Fit Center  708 is at  -2.092648  2.952065  1.014057
      ESP Fit Center  709 is at  -2.498789  2.839301  1.014057
      ESP Fit Center  710 is at  -2.871193  2.641865  1.014057
      ESP Fit Center  711 is at  -3.192448  2.368988  1.014057
      ESP Fit Center  712 is at  -3.447532  2.033431  1.014057
      ESP Fit Center  713 is at  -3.624517  1.650884  1.014057
      ESP Fit Center  714 is at  -3.715128  1.239233  1.014057
      ESP Fit Center  715 is at  -3.715128  0.817729  1.014057
      ESP Fit Center  716 is at  -1.671761  2.974885  0.604306
      ESP Fit Center  717 is at  -2.092648  2.952065  0.604306
      ESP Fit Center  718 is at  -2.498789  2.839301  0.604306
      ESP Fit Center  719 is at  -2.871193  2.641865  0.604306
      ESP Fit Center  720 is at  -3.192448  2.368988  0.604306
      ESP Fit Center  721 is at  -3.447532  2.033431  0.604306
      ESP Fit Center  722 is at  -3.624517  1.650884  0.604306
      ESP Fit Center  723 is at  -3.715128  1.239233  0.604306
[...]
 5116 Fit      -0.243704
 5117 Fit      -0.240857
 5118 Fit      -0.237704
 5119 Fit      -0.234745
 5120 Fit      -0.232305
 5121 Fit      -0.230493
 5122 Fit      -0.229239
 5123 Fit      -0.228343
 5124 Fit      -0.227506
 5125 Fit      -0.226364
 5126 Fit      -0.224565
 5127 Fit      -0.251412
 5128 Fit      -0.250061
 5129 Fit      -0.247492
 5130 Fit      -0.244051
 5131 Fit      -0.240370
 5132 Fit      -0.236988
 5133 Fit      -0.234206
 5134 Fit      -0.232121
 5135 Fit      -0.230697
 5136 Fit      -0.229811
 5137 Fit      -0.229270
 5138 Fit      -0.228816
 5139 Fit      -0.228121
 5140 Fit      -0.226785
 5141 Fit      -0.252012
 5142 Fit      -0.247430
 5143 Fit      -0.242919
 5144 Fit      -0.239017
 5145 Fit      -0.235925
 5146 Fit      -0.233660
 5147 Fit      -0.232152
 5148 Fit      -0.231284
 5149 Fit      -0.230901
 5150 Fit      -0.230807
 5151 Fit      -0.230755
 5152 Fit      -0.230421
 5153 Fit      -0.229388
 5154 Fit      -0.245999
 5155 Fit      -0.241528
 5156 Fit      -0.238113
 5157 Fit      -0.235659
 5158 Fit      -0.234046
 5159 Fit      -0.233149
 5160 Fit      -0.232838
 5161 Fit      -0.232968
 5162 Fit      -0.233363
 5163 Fit      -0.233803
 5164 Fit      -0.233998
 5165 Fit      -0.248288
 5166 Fit      -0.243466
 5167 Fit      -0.239959
 5168 Fit      -0.237539
 5169 Fit      -0.236030
 5170 Fit      -0.235293
 5171 Fit      -0.235203
 5172 Fit      -0.235638
 5173 Fit      -0.236461
 5174 Fit      -0.237507
 5175 Fit      -0.238559
 5176 Fit      -0.248039
 5177 Fit      -0.243695
 5178 Fit      -0.240761
 5179 Fit      -0.238955
 5180 Fit      -0.238092
 5181 Fit      -0.238031
 5182 Fit      -0.238659
 5183 Fit      -0.239866
 5184 Fit      -0.241530
 5185 Fit      -0.243498
 5186 Fit      -0.248158
 5187 Fit      -0.244641
 5188 Fit      -0.242486
 5189 Fit      -0.241447
 5190 Fit      -0.241364
 5191 Fit      -0.242128
 5192 Fit      -0.243656
 5193 Fit      -0.245877
 5194 Fit      -0.248717
 5195 Fit      -0.252074
 5196 Fit      -0.248321
 5197 Fit      -0.246138
 5198 Fit      -0.245235
 5199 Fit      -0.245443
 5200 Fit      -0.246667
 5201 Fit      -0.248861
 5202 Fit      -0.252015
 5203 Fit      -0.256142
 5204 Fit      -0.255188
 5205 Fit      -0.251745
 5206 Fit      -0.250028
 5207 Fit      -0.249750
 5208 Fit      -0.250772
 5209 Fit      -0.253050
 5210 Fit      -0.256622
 5211 Fit      -0.258794
 5212 Fit      -0.255896
 5213 Fit      -0.254862
 5214 Fit      -0.255444
 5215 Fit      -0.257570
 5216 Fit      -0.261299
 5217 Fit      -0.264774
 5218 Fit      -0.261561
 5219 Fit      -0.260701
 5220 Fit      -0.261906
 5221 Fit      -0.244844
 5222 Fit      -0.239465
 5223 Fit      -0.235190
 5224 Fit      -0.231835
 5225 Fit      -0.229281
 5226 Fit      -0.227470
 5227 Fit      -0.250197
 5228 Fit      -0.244336
 5229 Fit      -0.239615
 5230 Fit      -0.235859
 5231 Fit      -0.232945
 5232 Fit      -0.230795
 5233 Fit      -0.229365
 5234 Fit      -0.228653
 5235 Fit      -0.228717
 5236 Fit      -0.229694
 5237 Fit      -0.256083
 5238 Fit      -0.249440
 5239 Fit      -0.243989
 5240 Fit      -0.239560
 5241 Fit      -0.236026
 5242 Fit      -0.233301
 5243 Fit      -0.231325
 5244 Fit      -0.230064
 5245 Fit      -0.229510
 5246 Fit      -0.229689
 5247 Fit      -0.230671
 5248 Fit      -0.232590
 5249 Fit      -0.235663
 5250 Fit      -0.261631
 5251 Fit      -0.254520
 5252 Fit      -0.248523
 5253 Fit      -0.243506
 5254 Fit      -0.239367
 5255 Fit      -0.236029
 5256 Fit      -0.233436
 5257 Fit      -0.231550
 5258 Fit      -0.230345
 5259 Fit      -0.229815
 5260 Fit      -0.229967
 5261 Fit      -0.230836
 5262 Fit      -0.232487
 5263 Fit      -0.235027
 5264 Fit      -0.238615
 5265 Fit      -0.263665
 5266 Fit      -0.256767
 5267 Fit      -0.250775
 5268 Fit      -0.245629
 5269 Fit      -0.241275
 5270 Fit      -0.237667
 5271 Fit      -0.234770
 5272 Fit      -0.232560
 5273 Fit      -0.231018
 5274 Fit      -0.230135
 5275 Fit      -0.229910
 5276 Fit      -0.230353
 5277 Fit      -0.231490
 5278 Fit      -0.233367
 5279 Fit      -0.236059
 5280 Fit      -0.239669
 5281 Fit      -0.244326
 5282 Fit      -0.262803
 5283 Fit      -0.256498
 5284 Fit      -0.250871
 5285 Fit      -0.245928
 5286 Fit      -0.241668
 5287 Fit      -0.238081
 5288 Fit      -0.235160
 5289 Fit      -0.232900
 5290 Fit      -0.231299
 5291 Fit      -0.230354
 5292 Fit      -0.230069
 5293 Fit      -0.230451
 5294 Fit      -0.231515
 5295 Fit      -0.233289
 5296 Fit      -0.235819
 5297 Fit      -0.239168
 5298 Fit      -0.243423
 5299 Fit      -0.248682
 5300 Fit      -0.261894
 5301 Fit      -0.256243
 5302 Fit      -0.251061
 5303 Fit      -0.246401
 5304 Fit      -0.242297
 5305 Fit      -0.238775
 5306 Fit      -0.235855
 5307 Fit      -0.233552
 5308 Fit      -0.231878
 5309 Fit      -0.230842
 5310 Fit      -0.230453
 5311 Fit      -0.230720
 5312 Fit      -0.231652
 5313 Fit      -0.233267
 5314 Fit      -0.235591
 5315 Fit      -0.238662
 5316 Fit      -0.242535
 5317 Fit      -0.247278
 5318 Fit      -0.252974
 5319 Fit      -0.258032
 5320 Fit      -0.252958
 5321 Fit      -0.248277
 5322 Fit      -0.244061
 5323 Fit      -0.240369
 5324 Fit      -0.237249
 5325 Fit      -0.234742
 5326 Fit      -0.232880
 5327 Fit      -0.231687
 5328 Fit      -0.231181
 5329 Fit      -0.231378
 5330 Fit      -0.232288
 5331 Fit      -0.233925
 5332 Fit      -0.236307
 5333 Fit      -0.239462
 5334 Fit      -0.243430
 5335 Fit      -0.248265
 5336 Fit      -0.254041
 5337 Fit      -0.260852
 5338 Fit      -0.258708
 5339 Fit      -0.253741
 5340 Fit      -0.249098
 5341 Fit      -0.244865
 5342 Fit      -0.241130
 5343 Fit      -0.237973
 5344 Fit      -0.235462
 5345 Fit      -0.233652
 5346 Fit      -0.232587
 5347 Fit      -0.232298
 5348 Fit      -0.232805
 5349 Fit      -0.234123
 5350 Fit      -0.236263
 5351 Fit      -0.239241
 5352 Fit      -0.243080
 5353 Fit      -0.247814
 5354 Fit      -0.253489
 5355 Fit      -0.260162
 5356 Fit      -0.260054
 5357 Fit      -0.255142
 5358 Fit      -0.250518
 5359 Fit      -0.246259
 5360 Fit      -0.242470
 5361 Fit      -0.239260
 5362 Fit      -0.236731
 5363 Fit      -0.234967
 5364 Fit      -0.234034
 5365 Fit      -0.233977
 5366 Fit      -0.234824
 5367 Fit      -0.236588
 5368 Fit      -0.239275
 5369 Fit      -0.242887
 5370 Fit      -0.247428
 5371 Fit      -0.252897
 5372 Fit      -0.259275
 5373 Fit      -0.266480
 5374 Fit      -0.260932
 5375 Fit      -0.255936
 5376 Fit      -0.251227
 5377 Fit      -0.246900
 5378 Fit      -0.243095
 5379 Fit      -0.239970
 5380 Fit      -0.237676
 5381 Fit      -0.236336
 5382 Fit      -0.236041
 5383 Fit      -0.236842
 5384 Fit      -0.238757
 5385 Fit      -0.241775
 5386 Fit      -0.245862
 5387 Fit      -0.250950
 5388 Fit      -0.256914
 5389 Fit      -0.263498
 5390 Fit      -0.261426
 5391 Fit      -0.256323
 5392 Fit      -0.251370
 5393 Fit      -0.246861
 5394 Fit      -0.243086
 5395 Fit      -0.240342
 5396 Fit      -0.238882
 5397 Fit      -0.238883
 5398 Fit      -0.240422
 5399 Fit      -0.243474
 5400 Fit      -0.247905
 5401 Fit      -0.253440
 5402 Fit      -0.259566
 5403 Fit      -0.265399
 5404 Fit      -0.262976
 5405 Fit      -0.261430
 5406 Fit      -0.257329
 5407 Fit      -0.252276
 5408 Fit      -0.247483
 5409 Fit      -0.243843
 5410 Fit      -0.242067
 5411 Fit      -0.242601
 5412 Fit      -0.245498
 5413 Fit      -0.250332
 5414 Fit      -0.256063
 5415 Fit      -0.260932
 5416 Fit      -0.256205
 5417 Fit      -0.253748
 5418 Fit      -0.248741
 5419 Fit      -0.245947
 5420 Fit      -0.247870
 5421 Fit      -0.253062
 5422 Fit      -0.250610
 5423 Fit      -0.226694
 5424 Fit      -0.226871
 5425 Fit      -0.225593
 5426 Fit      -0.228310
 5427 Fit      -0.230013
 5428 Fit      -0.229011
 5429 Fit      -0.228428
 5430 Fit      -0.230726
 5431 Fit      -0.226805
 5432 Fit      -0.225491
 5433 Fit      -0.228337
 5434 Fit      -0.233507
 5435 Fit      -0.237206
 5436 Fit      -0.232918
 5437 Fit      -0.232602
 5438 Fit      -0.233404
 5439 Fit      -0.233459
 5440 Fit      -0.238795
 5441 Fit      -0.232368
 5442 Fit      -0.227446
 5443 Fit      -0.226253
 5444 Fit      -0.229174
 5445 Fit      -0.235244
 5446 Fit      -0.242653
 5447 Fit      -0.239270
 5448 Fit      -0.241620
 5449 Fit      -0.243890
 5450 Fit      -0.243328
 5451 Fit      -0.241941
 5452 Fit      -0.233153
 5453 Fit      -0.228265
 5454 Fit      -0.228070
 5455 Fit      -0.232180
 5456 Fit      -0.239609
 5457 Fit      -0.249236
 5458 Fit      -0.248138
 5459 Fit      -0.252235
 5460 Fit      -0.197284
 5461 Fit      -0.187636
 5462 Fit      -0.179863
 5463 Fit      -0.173686
 5464 Fit      -0.168834
 5465 Fit      -0.165057
 5466 Fit      -0.223052
 5467 Fit      -0.209050
 5468 Fit      -0.192446
 5469 Fit      -0.183754
 5470 Fit      -0.176788
 5471 Fit      -0.171369
 5472 Fit      -0.167324
 5473 Fit      -0.164533
 5474 Fit      -0.162979
 5475 Fit      -0.229812
 5476 Fit      -0.215496
 5477 Fit      -0.203010
 5478 Fit      -0.189028
 5479 Fit      -0.181256
 5480 Fit      -0.175105
 5481 Fit      -0.170481
 5482 Fit      -0.167311
 5483 Fit      -0.165591
 5484 Fit      -0.165456
 5485 Fit      -0.167270
 5486 Fit      -0.222466
 5487 Fit      -0.209658
 5488 Fit      -0.198493
 5489 Fit      -0.187016
 5490 Fit      -0.179719
 5491 Fit      -0.174195
 5492 Fit      -0.170425
 5493 Fit      -0.168436
 5494 Fit      -0.168365
 5495 Fit      -0.170527
 5496 Fit      -0.175415
 5497 Fit      -0.183522
 5498 Fit      -0.232939
 5499 Fit      -0.219237
 5500 Fit      -0.206872
 5501 Fit      -0.196086
 5502 Fit      -0.186396
 5503 Fit      -0.179646
 5504 Fit      -0.174902
 5505 Fit      -0.172256
 5506 Fit      -0.171854
 5507 Fit      -0.173953
 5508 Fit      -0.178886
 5509 Fit      -0.186853
 5510 Fit      -0.197570
 5511 Fit      -0.210115
 5512 Fit      -0.223265
 5513 Fit      -0.235976
 5514 Fit      -0.250582
 5515 Fit      -0.241025
 5516 Fit      -0.229323
 5517 Fit      -0.217036
 5518 Fit      -0.205379
 5519 Fit      -0.195041
 5520 Fit      -0.187178
 5521 Fit      -0.180883
 5522 Fit      -0.177203
 5523 Fit      -0.176413
 5524 Fit      -0.178784
 5525 Fit      -0.184505
 5526 Fit      -0.193363
 5527 Fit      -0.204447
 5528 Fit      -0.216275
 5529 Fit      -0.227201
 5530 Fit      -0.235542
 5531 Fit      -0.239828
 5532 Fit      -0.239564
 5533 Fit      -0.235169
 5534 Fit      -0.227276
 5535 Fit      -0.217004
 5536 Fit      -0.206004
 5537 Fit      -0.195741
 5538 Fit      -0.189407
 5539 Fit      -0.183641
 5540 Fit      -0.182289
 5541 Fit      -0.185847
 5542 Fit      -0.193957
 5543 Fit      -0.204815
 5544 Fit      -0.215325
 5545 Fit      -0.222147
 5546 Fit      -0.223108
 5547 Fit      -0.218164
 5548 Fit      -0.209016
 5549 Fit      -0.198498
 5550 Fit      -0.193168
 5551 Fit      -0.189596
 5552 Fit      -0.195654
 5553 Fit      -0.205899
 5554 Fit      -0.209631
 5555 Fit      -0.202978
 5556 Fit      -0.198600
 5557 Fit      -0.213533
 5558 Fit      -0.210451
 5559 Fit      -0.203511
 5560 Fit      -0.208359
 5561 Fit      -0.218327
 5562 Fit      -0.224751
 5563 Fit      -0.222253
 5564 Fit      -0.208615
 5565 Fit      -0.198492
 5566 Fit      -0.194717
 5567 Fit      -0.197569
 5568 Fit      -0.205921
 5569 Fit      -0.216572
 5570 Fit      -0.240327
 5571 Fit      -0.235748
 5572 Fit      -0.222912
 5573 Fit      -0.207647
 5574 Fit      -0.196313
 5575 Fit      -0.189483
 5576 Fit      -0.187102
 5577 Fit      -0.189124
 5578 Fit      -0.195495
 5579 Fit      -0.205637
 5580 Fit      -0.223108
 5581 Fit      -0.207237
 5582 Fit      -0.194889
 5583 Fit      -0.186580
 5584 Fit      -0.181893
 5585 Fit      -0.180604
 5586 Fit      -0.182751
 5587 Fit      -0.188601
 5588 Fit      -0.224059
 5589 Fit      -0.207126
 5590 Fit      -0.193911
 5591 Fit      -0.184654
 5592 Fit      -0.178683
 5593 Fit      -0.175599
 5594 Fit      -0.175273
 5595 Fit      -0.177878
 5596 Fit      -0.183936
 5597 Fit      -0.225252
 5598 Fit      -0.207113
 5599 Fit      -0.193591
 5600 Fit      -0.183837
 5601 Fit      -0.177062
 5602 Fit      -0.172770
 5603 Fit      -0.170690
 5604 Fit      -0.170777
 5605 Fit      -0.173272
 5606 Fit      -0.207049
 5607 Fit      -0.193041
 5608 Fit      -0.182862
 5609 Fit      -0.175605
 5610 Fit      -0.170686
 5611 Fit      -0.167744
 5612 Fit      -0.166596
 5613 Fit      -0.167275
 5614 Fit      -0.206847
 5615 Fit      -0.192938
 5616 Fit      -0.182691
 5617 Fit      -0.175194
 5618 Fit      -0.169843
 5619 Fit      -0.166221
 5620 Fit      -0.164032
 5621 Fit      -0.163077
 5622 Fit      -0.206484
 5623 Fit      -0.192893
 5624 Fit      -0.182758
 5625 Fit      -0.175206
 5626 Fit      -0.169638
 5627 Fit      -0.165603
 5628 Fit      -0.162716
 5629 Fit      -0.206000
 5630 Fit      -0.192615
 5631 Fit      -0.182591
 5632 Fit      -0.175074
 5633 Fit      -0.169448
 5634 Fit      -0.165202
 5635 Fit      -0.224027
 5636 Fit      -0.205494
 5637 Fit      -0.192491
 5638 Fit      -0.182709
 5639 Fit      -0.175349
 5640 Fit      -0.222826
 5641 Fit      -0.173269
 5642 Fit      -0.171190
 5643 Fit      -0.173349
 5644 Fit      -0.166781
 5645 Fit      -0.162625
 5646 Fit      -0.161439
 5647 Fit      -0.163295
 5648 Fit      -0.168334
 5649 Fit      -0.176807
 5650 Fit      -0.161852
 5651 Fit      -0.156730
 5652 Fit      -0.154024
 5653 Fit      -0.153722
 5654 Fit      -0.155859
 5655 Fit      -0.160552
 5656 Fit      -0.168014
 5657 Fit      -0.178576
 5658 Fit      -0.158437
 5659 Fit      -0.152793
 5660 Fit      -0.149174
 5661 Fit      -0.147518
 5662 Fit      -0.147800
 5663 Fit      -0.150050
 5664 Fit      -0.154360
 5665 Fit      -0.160899
 5666 Fit      -0.169925
 5667 Fit      -0.181816
 5668 Fit      -0.155411
 5669 Fit      -0.149475
 5670 Fit      -0.145464
 5671 Fit      -0.143282
 5672 Fit      -0.142875
 5673 Fit      -0.144240
 5674 Fit      -0.147432
 5675 Fit      -0.152566
 5676 Fit      -0.159831
 5677 Fit      -0.169510
 5678 Fit      -0.182009
 5679 Fit      -0.153492
 5680 Fit      -0.147451
 5681 Fit      -0.143210
 5682 Fit      -0.140651
 5683 Fit      -0.139703
 5684 Fit      -0.140345
 5685 Fit      -0.142599
 5686 Fit      -0.146538
 5687 Fit      -0.152292
 5688 Fit      -0.160057
 5689 Fit      -0.170117
 5690 Fit      -0.182866
 5691 Fit      -0.152172
 5692 Fit      -0.146168
 5693 Fit      -0.141885
 5694 Fit      -0.139200
 5695 Fit      -0.138040
 5696 Fit      -0.138373
 5697 Fit      -0.140212
 5698 Fit      -0.143611
 5699 Fit      -0.148672
 5700 Fit      -0.155554
 5701 Fit      -0.164482
 5702 Fit      -0.175767
 5703 Fit      -0.151061
 5704 Fit      -0.145180
 5705 Fit      -0.141053
 5706 Fit      -0.138563
 5707 Fit      -0.137641
 5708 Fit      -0.138264
 5709 Fit      -0.140452
 5710 Fit      -0.144270
 5711 Fit      -0.149834
 5712 Fit      -0.157317
 5713 Fit      -0.166962
 5714 Fit      -0.179098
 5715 Fit      -0.150586
 5716 Fit      -0.144956
 5717 Fit      -0.141157
 5718 Fit      -0.139089
 5719 Fit      -0.138701
 5720 Fit      -0.139986
 5721 Fit      -0.142988
 5722 Fit      -0.147797
 5723 Fit      -0.154562
 5724 Fit      -0.163497
 5725 Fit      -0.174885
 5726 Fit      -0.158419
 5727 Fit      -0.151235
 5728 Fit      -0.146018
 5729 Fit      -0.142675
 5730 Fit      -0.141141
 5731 Fit      -0.141390
 5732 Fit      -0.143439
 5733 Fit      -0.147353
 5734 Fit      -0.153247
 5735 Fit      -0.161294
 5736 Fit      -0.171720
 5737 Fit      -0.184798
 5738 Fit      -0.159161
 5739 Fit      -0.152339
 5740 Fit      -0.147721
 5741 Fit      -0.145274
 5742 Fit      -0.144978
 5743 Fit      -0.146852
 5744 Fit      -0.150964
 5745 Fit      -0.157441
 5746 Fit      -0.166458
 5747 Fit      -0.178228
 5748 Fit      -0.161132
 5749 Fit      -0.154920
 5750 Fit      -0.151250
 5751 Fit      -0.150168
 5752 Fit      -0.151715
 5753 Fit      -0.155965
 5754 Fit      -0.163031
 5755 Fit      -0.173045
 5756 Fit      -0.186089
 5757 Fit      -0.164226
 5758 Fit      -0.158964
 5759 Fit      -0.157109
 5760 Fit      -0.158810
 5761 Fit      -0.164161
 5762 Fit      -0.173203
 5763 Fit      -0.185804
 5764 Fit      -0.168681
 5765 Fit      -0.165846
 5766 Fit      -0.168937
 5767 Fit      -0.177905
 5768 Fit      -0.176588
 5769 Fit      -0.183407
 5770 Fit      -0.181264
 5771 Fit      -0.188802
 5772 Fit      -0.190445
 5773 Fit      -0.183862
 5774 Fit      -0.175653
 5775 Fit      -0.174199
 5776 Fit      -0.180733
 5777 Fit      -0.201999
 5778 Fit      -0.197265
 5779 Fit      -0.188766
 5780 Fit      -0.179300
 5781 Fit      -0.171876
 5782 Fit      -0.168261
 5783 Fit      -0.169066
 5784 Fit      -0.174052
 5785 Fit      -0.182094
 5786 Fit      -0.191075
 5787 Fit      -0.206015
 5788 Fit      -0.196300
 5789 Fit      -0.185963
 5790 Fit      -0.176816
 5791 Fit      -0.169890
 5792 Fit      -0.165646
 5793 Fit      -0.164257
 5794 Fit      -0.165742
 5795 Fit      -0.169988
 5796 Fit      -0.176687
 5797 Fit      -0.185225
 5798 Fit      -0.202807
 5799 Fit      -0.191079
 5800 Fit      -0.180934
 5801 Fit      -0.172883
 5802 Fit      -0.167081
 5803 Fit      -0.163555
 5804 Fit      -0.162303
 5805 Fit      -0.163316
 5806 Fit      -0.166566
 5807 Fit      -0.171978
 5808 Fit      -0.179379
 5809 Fit      -0.193509
 5810 Fit      -0.182965
 5811 Fit      -0.174687
 5812 Fit      -0.168563
 5813 Fit      -0.164498
 5814 Fit      -0.162439
 5815 Fit      -0.162364
 5816 Fit      -0.164270
 5817 Fit      -0.168160
 5818 Fit      -0.174015
 5819 Fit      -0.181765
 5820 Fit      -0.197467
 5821 Fit      -0.186827
 5822 Fit      -0.178444
 5823 Fit      -0.172070
 5824 Fit      -0.167558
 5825 Fit      -0.164828
 5826 Fit      -0.163848
 5827 Fit      -0.164617
 5828 Fit      -0.167151
 5829 Fit      -0.171478
 5830 Fit      -0.177619
 5831 Fit      -0.193729
 5832 Fit      -0.184642
 5833 Fit      -0.177628
 5834 Fit      -0.172500
 5835 Fit      -0.169167
 5836 Fit      -0.167591
 5837 Fit      -0.167771
 5838 Fit      -0.169728
 5839 Fit      -0.173504
 5840 Fit      -0.179155
 5841 Fit      -0.193432
 5842 Fit      -0.185736
 5843 Fit      -0.179921
 5844 Fit      -0.175902
 5845 Fit      -0.173643
 5846 Fit      -0.173140
 5847 Fit      -0.174412
 5848 Fit      -0.177504
 5849 Fit      -0.182482
 5850 Fit      -0.200922
 5851 Fit      -0.193156
 5852 Fit      -0.187327
 5853 Fit      -0.183388
 5854 Fit      -0.181316
 5855 Fit      -0.181114
 5856 Fit      -0.182808
 5857 Fit      -0.186457
 5858 Fit      -0.202954
 5859 Fit      -0.196834
 5860 Fit      -0.192978
 5861 Fit      -0.191359
 5862 Fit      -0.191976
 5863 Fit      -0.194870
 5864 Fit      -0.211581
 5865 Fit      -0.206594
 5866 Fit      -0.204484
 5867 Fit      -0.205207
 -----------------------------------------------------------------
 Leave Link  602 at Wed Sep 16 21:38:21 2015, MaxMem=   33554432 cpu:       1.5

 Test job not archived.
 1\1\GINC-NID05431\SP\RHF\6-31G(d)\C3H5O7P1(2-)\NMIH\16-Sep-2015\0\\#HF
 /6-31G* Test Pop=MK iop(6/33=2) iop(6/42=6)\\16 atoms\\-2,1\C,0,1.685,
 0.219,-1.447\O,0,2.661,0.082,-0.411\C,0,0.297,-0.09,-0.883\O,0,0.,0.82
 1,0.175\P,0,-0.238,-0.064,1.498\O,0,-1.45806,-1.070275,1.25538\C,0,-0.
 731,0.054,-1.975\O,0,-0.651,-0.707,-3.077\O,0,-1.627,0.855,-1.858\O,0,
 0.987,-0.837,1.8\O,0,-0.58,0.904,2.738\H,0,0.279,-1.11,-0.5\H,0,1.703,
 1.239,-1.83\H,0,1.913,-0.476,-2.255\H,0,3.519,0.285,-0.808\H,0,-1.5976
 33,-1.590729,2.034133\\Version=AM64L-G09RevC.01\State=1-A\HF=-981.2444
 059\RMSD=4.836e-09\Dipole=1.9692262,-0.8164691,-0.1659475\Quadrupole=1
 2.080527,14.5207115,-26.6012385,7.6599215,-15.2575902,-9.124684\PG=C01
  [X(C3H5O7P1)]\\@


 When cryptography is outlawed, bayl bhgynjf jvyy unir cevinpl.
 Job cpu time:  0 days  0 hours  1 minutes  3.9 seconds.
 File lengths (MBytes):  RWF=     20 Int=      0 D2E=      0 Chk=      2 Scr=      1
 Normal termination of Gaussian 09 at Wed Sep 16 21:38:21 2015.
