 Entering Gaussian System, Link 0=g09
 Input=F6P_-2.gau
 Output=F6P_-2.log
 Initial command:
 /usr/common/software/g09/d1/g09/l1.exe "/global/cscratch1/sd/nmih/Gau-36349.inp" -scrdir="/global/cscratch1/sd/nmih/"
 Entering Link 1 = /usr/common/software/g09/d1/g09/l1.exe PID=     36350.
  
 Copyright (c) 1988,1990,1992,1993,1995,1998,2003,2009,2013,
            Gaussian, Inc.  All Rights Reserved.
  
 This is part of the Gaussian(R) 09 program.  It is based on
 the Gaussian(R) 03 system (copyright 2003, Gaussian, Inc.),
 the Gaussian(R) 98 system (copyright 1998, Gaussian, Inc.),
 the Gaussian(R) 94 system (copyright 1995, Gaussian, Inc.),
 the Gaussian 92(TM) system (copyright 1992, Gaussian, Inc.),
 the Gaussian 90(TM) system (copyright 1990, Gaussian, Inc.),
 the Gaussian 88(TM) system (copyright 1988, Gaussian, Inc.),
 the Gaussian 86(TM) system (copyright 1986, Carnegie Mellon
 University), and the Gaussian 82(TM) system (copyright 1983,
 Carnegie Mellon University). Gaussian is a federally registered
 trademark of Gaussian, Inc.
  
 This software contains proprietary and confidential information,
 including trade secrets, belonging to Gaussian, Inc.
  
 This software is provided under written license and may be
 used, copied, transmitted, or stored only in accord with that
 written license.
  
 The following legend is applicable only to US Government
 contracts under FAR:
  
                    RESTRICTED RIGHTS LEGEND
  
 Use, reproduction and disclosure by the US Government is
 subject to restrictions as set forth in subparagraphs (a)
 and (c) of the Commercial Computer Software - Restricted
 Rights clause in FAR 52.227-19.
  
 Gaussian, Inc.
 340 Quinnipiac St., Bldg. 40, Wallingford CT 06492
  
  
 ---------------------------------------------------------------
 Warning -- This program may not be used in any manner that
 competes with the business of Gaussian, Inc. or will provide
 assistance to any competitor of Gaussian, Inc.  The licensee
 of this program is prohibited from giving any competitor of
 Gaussian, Inc. access to this program.  By using this program,
 the user acknowledges that Gaussian, Inc. is engaged in the
 business of creating and licensing software in the field of
 computational chemistry and represents and warrants to the
 licensee that it is not a competitor of Gaussian, Inc. and that
 it will not use this program in any manner prohibited above.
 ---------------------------------------------------------------
  

 Cite this work as:
 Gaussian 09, Revision D.01,
 M. J. Frisch, G. W. Trucks, H. B. Schlegel, G. E. Scuseria, 
 M. A. Robb, J. R. Cheeseman, G. Scalmani, V. Barone, B. Mennucci, 
 G. A. Petersson, H. Nakatsuji, M. Caricato, X. Li, H. P. Hratchian, 
 A. F. Izmaylov, J. Bloino, G. Zheng, J. L. Sonnenberg, M. Hada, 
 M. Ehara, K. Toyota, R. Fukuda, J. Hasegawa, M. Ishida, T. Nakajima, 
 Y. Honda, O. Kitao, H. Nakai, T. Vreven, J. A. Montgomery, Jr., 
 J. E. Peralta, F. Ogliaro, M. Bearpark, J. J. Heyd, E. Brothers, 
 K. N. Kudin, V. N. Staroverov, T. Keith, R. Kobayashi, J. Normand, 
 K. Raghavachari, A. Rendell, J. C. Burant, S. S. Iyengar, J. Tomasi, 
 M. Cossi, N. Rega, J. M. Millam, M. Klene, J. E. Knox, J. B. Cross, 
 V. Bakken, C. Adamo, J. Jaramillo, R. Gomperts, R. E. Stratmann, 
 O. Yazyev, A. J. Austin, R. Cammi, C. Pomelli, J. W. Ochterski, 
 R. L. Martin, K. Morokuma, V. G. Zakrzewski, G. A. Voth, 
 P. Salvador, J. J. Dannenberg, S. Dapprich, A. D. Daniels, 
 O. Farkas, J. B. Foresman, J. V. Ortiz, J. Cioslowski, 
 and D. J. Fox, Gaussian, Inc., Wallingford CT, 2013.
 
 ******************************************
 Gaussian 09:  ES64L-G09RevD.01 24-Apr-2013
                31-Mar-2017 
 ******************************************
 %chk=F6P.chk
 ------------------------------------------------------------
 #HF/6-31G* SCF=tight Test Pop=MK iop(6/33=2) iop(6/42=6) opt
 ------------------------------------------------------------
 1/18=20,19=15,38=1/1,3;
 2/9=110,12=2,17=6,18=5,40=1/2;
 3/5=1,6=6,7=1,11=9,16=1,25=1,30=1,71=1/1,2,3;
 4//1;
 5/5=2,32=2,38=5/2;
 6/7=2,8=2,9=2,10=2,15=8,20=1,28=1,33=2,42=6/1,2;
 7//1,2,3,16;
 1/18=20,19=15/3(2);
 2/9=110/2;
 99//99;
 2/9=110/2;
 3/5=1,6=6,7=1,11=9,16=1,25=1,30=1,71=1/1,2,3;
 4/5=5,16=3,69=1/1;
 5/5=2,32=2,38=5/2;
 7//1,2,3,16;
 1/18=20,19=15/3(-5);
 2/9=110/2;
 6/7=2,8=2,9=2,10=2,15=8,19=2,20=1,28=1,33=2,42=6/1,2;
 99/9=1/99;
 -------
 F6P.pdb
 -------
 Symbolic Z-matrix:
 Charge = -2 Multiplicity = 1
 O                     2.812    -0.579     2.931 
 C                     1.439    -0.819     3.247 
 C                     0.555     0.12      2.425 
 O                     0.891     1.478     2.715 
 C                    -0.93     -0.134     2.756 
 O                    -1.433     0.852     3.659 
 C                    -1.604    -0.004     1.362 
 O                    -2.793    -0.793     1.287 
 C                    -0.496    -0.577     0.443 
 O                     0.74     -0.137     1.028 
 C                    -0.639    -0.021    -0.975 
 O                     0.428    -0.511    -1.788 
 P                     0.216     0.109    -3.258 
 O                     0.25      1.586    -3.18 
 O                     1.391    -0.403    -4.232 
 O                    -1.208    -0.364    -3.84 
 H                     3.333    -1.191     3.47 
 H                     1.187    -1.853     3.012 
 H                     1.273    -0.637     4.309 
 H                     1.824     1.59      2.49 
 H                    -1.07     -1.136     3.163 
 H                    -2.382     0.688     3.752 
 H                    -1.812     1.038     1.123 
 H                    -3.438    -0.382     1.88 
 H                    -0.542    -1.666     0.429 
 H                    -1.592    -0.341    -1.396 
 H                    -0.603     1.067    -0.944 
 

 GradGradGradGradGradGradGradGradGradGradGradGradGradGradGradGradGradGrad
 Berny optimization.
 Initialization pass.
                           ----------------------------
                           !    Initial Parameters    !
                           ! (Angstroms and Degrees)  !
 --------------------------                            --------------------------
 ! Name  Definition              Value          Derivative Info.                !
 --------------------------------------------------------------------------------
 ! R1    R(1,2)                  1.4292         estimate D2E/DX2                !
 ! R2    R(1,17)                 0.9677         estimate D2E/DX2                !
 ! R3    R(2,3)                  1.5293         estimate D2E/DX2                !
 ! R4    R(2,18)                 1.0899         estimate D2E/DX2                !
 ! R5    R(2,19)                 1.0902         estimate D2E/DX2                !
 ! R6    R(3,4)                  1.4287         estimate D2E/DX2                !
 ! R7    R(3,5)                  1.5425         estimate D2E/DX2                !
 ! R8    R(3,10)                 1.4324         estimate D2E/DX2                !
 ! R9    R(4,20)                 0.9663         estimate D2E/DX2                !
 ! R10   R(5,6)                  1.4285         estimate D2E/DX2                !
 ! R11   R(5,7)                  1.5538         estimate D2E/DX2                !
 ! R12   R(5,21)                 1.0905         estimate D2E/DX2                !
 ! R13   R(6,22)                 0.9675         estimate D2E/DX2                !
 ! R14   R(7,8)                  1.4289         estimate D2E/DX2                !
 ! R15   R(7,9)                  1.5494         estimate D2E/DX2                !
 ! R16   R(7,23)                 1.0891         estimate D2E/DX2                !
 ! R17   R(8,24)                 0.9678         estimate D2E/DX2                !
 ! R18   R(9,10)                 1.4365         estimate D2E/DX2                !
 ! R19   R(9,11)                 1.5298         estimate D2E/DX2                !
 ! R20   R(9,25)                 1.0901         estimate D2E/DX2                !
 ! R21   R(11,12)                1.4281         estimate D2E/DX2                !
 ! R22   R(11,26)                1.0899         estimate D2E/DX2                !
 ! R23   R(11,27)                1.089          estimate D2E/DX2                !
 ! R24   R(12,13)                1.6094         estimate D2E/DX2                !
 ! R25   R(13,14)                1.4794         estimate D2E/DX2                !
 ! R26   R(13,15)                1.6098         estimate D2E/DX2                !
 ! R27   R(13,16)                1.6094         estimate D2E/DX2                !
 ! A1    A(2,1,17)             106.7298         estimate D2E/DX2                !
 ! A2    A(1,2,3)              109.4726         estimate D2E/DX2                !
 ! A3    A(1,2,18)             109.4974         estimate D2E/DX2                !
 ! A4    A(1,2,19)             109.4894         estimate D2E/DX2                !
 ! A5    A(3,2,18)             109.4486         estimate D2E/DX2                !
 ! A6    A(3,2,19)             109.4554         estimate D2E/DX2                !
 ! A7    A(18,2,19)            109.464          estimate D2E/DX2                !
 ! A8    A(2,3,4)              109.7898         estimate D2E/DX2                !
 ! A9    A(2,3,5)              109.8793         estimate D2E/DX2                !
 ! A10   A(2,3,10)             109.8391         estimate D2E/DX2                !
 ! A11   A(4,3,5)              109.8389         estimate D2E/DX2                !
 ! A12   A(4,3,10)             109.7626         estimate D2E/DX2                !
 ! A13   A(5,3,10)             107.7022         estimate D2E/DX2                !
 ! A14   A(3,4,20)             106.8576         estimate D2E/DX2                !
 ! A15   A(3,5,6)              111.1604         estimate D2E/DX2                !
 ! A16   A(3,5,7)              102.1989         estimate D2E/DX2                !
 ! A17   A(3,5,21)             110.7922         estimate D2E/DX2                !
 ! A18   A(6,5,7)              110.8929         estimate D2E/DX2                !
 ! A19   A(6,5,21)             110.6756         estimate D2E/DX2                !
 ! A20   A(7,5,21)             110.8553         estimate D2E/DX2                !
 ! A21   A(5,6,22)             106.806          estimate D2E/DX2                !
 ! A22   A(5,7,8)              111.2121         estimate D2E/DX2                !
 ! A23   A(5,7,9)              101.0106         estimate D2E/DX2                !
 ! A24   A(5,7,23)             111.0854         estimate D2E/DX2                !
 ! A25   A(8,7,9)              111.0826         estimate D2E/DX2                !
 ! A26   A(8,7,23)             110.9679         estimate D2E/DX2                !
 ! A27   A(9,7,23)             111.1153         estimate D2E/DX2                !
 ! A28   A(7,8,24)             106.7329         estimate D2E/DX2                !
 ! A29   A(7,9,10)             105.0988         estimate D2E/DX2                !
 ! A30   A(7,9,11)             110.3977         estimate D2E/DX2                !
 ! A31   A(7,9,25)             110.2983         estimate D2E/DX2                !
 ! A32   A(10,9,11)            110.2785         estimate D2E/DX2                !
 ! A33   A(10,9,25)            110.3371         estimate D2E/DX2                !
 ! A34   A(11,9,25)            110.3187         estimate D2E/DX2                !
 ! A35   A(3,10,9)             109.9376         estimate D2E/DX2                !
 ! A36   A(9,11,12)            109.4589         estimate D2E/DX2                !
 ! A37   A(9,11,26)            109.4554         estimate D2E/DX2                !
 ! A38   A(9,11,27)            109.4889         estimate D2E/DX2                !
 ! A39   A(12,11,26)           109.43           estimate D2E/DX2                !
 ! A40   A(12,11,27)           109.5291         estimate D2E/DX2                !
 ! A41   A(26,11,27)           109.4649         estimate D2E/DX2                !
 ! A42   A(11,12,13)           106.8202         estimate D2E/DX2                !
 ! A43   A(12,13,14)           109.476          estimate D2E/DX2                !
 ! A44   A(12,13,15)           109.5093         estimate D2E/DX2                !
 ! A45   A(12,13,16)           109.489          estimate D2E/DX2                !
 ! A46   A(14,13,15)           109.4298         estimate D2E/DX2                !
 ! A47   A(14,13,16)           109.4393         estimate D2E/DX2                !
 ! A48   A(15,13,16)           109.484          estimate D2E/DX2                !
 ! D1    D(17,1,2,3)          -179.9821         estimate D2E/DX2                !
 ! D2    D(17,1,2,18)          -59.9929         estimate D2E/DX2                !
 ! D3    D(17,1,2,19)           60.0254         estimate D2E/DX2                !
 ! D4    D(1,2,3,4)            -59.2532         estimate D2E/DX2                !
 ! D5    D(1,2,3,5)            179.8404         estimate D2E/DX2                !
 ! D6    D(1,2,3,10)            61.5333         estimate D2E/DX2                !
 ! D7    D(18,2,3,4)          -179.2722         estimate D2E/DX2                !
 ! D8    D(18,2,3,5)            59.8213         estimate D2E/DX2                !
 ! D9    D(18,2,3,10)          -58.4857         estimate D2E/DX2                !
 ! D10   D(19,2,3,4)            60.7602         estimate D2E/DX2                !
 ! D11   D(19,2,3,5)           -60.1463         estimate D2E/DX2                !
 ! D12   D(19,2,3,10)         -178.4533         estimate D2E/DX2                !
 ! D13   D(2,3,4,20)            59.282          estimate D2E/DX2                !
 ! D14   D(5,3,4,20)          -179.7871         estimate D2E/DX2                !
 ! D15   D(10,3,4,20)          -61.5506         estimate D2E/DX2                !
 ! D16   D(2,3,5,6)            100.8325         estimate D2E/DX2                !
 ! D17   D(2,3,5,7)           -140.8132         estimate D2E/DX2                !
 ! D18   D(2,3,5,21)           -22.6689         estimate D2E/DX2                !
 ! D19   D(4,3,5,6)            -20.0444         estimate D2E/DX2                !
 ! D20   D(4,3,5,7)             98.3099         estimate D2E/DX2                !
 ! D21   D(4,3,5,21)          -143.5458         estimate D2E/DX2                !
 ! D22   D(10,3,5,6)          -139.5483         estimate D2E/DX2                !
 ! D23   D(10,3,5,7)           -21.194          estimate D2E/DX2                !
 ! D24   D(10,3,5,21)           96.9504         estimate D2E/DX2                !
 ! D25   D(2,3,10,9)           117.8025         estimate D2E/DX2                !
 ! D26   D(4,3,10,9)          -121.3946         estimate D2E/DX2                !
 ! D27   D(5,3,10,9)            -1.8423         estimate D2E/DX2                !
 ! D28   D(3,5,6,22)           174.37           estimate D2E/DX2                !
 ! D29   D(7,5,6,22)            61.3977         estimate D2E/DX2                !
 ! D30   D(21,5,6,22)          -62.0621         estimate D2E/DX2                !
 ! D31   D(3,5,7,8)            151.9644         estimate D2E/DX2                !
 ! D32   D(3,5,7,9)             34.0204         estimate D2E/DX2                !
 ! D33   D(3,5,7,23)           -83.9075         estimate D2E/DX2                !
 ! D34   D(6,5,7,8)            -89.4915         estimate D2E/DX2                !
 ! D35   D(6,5,7,9)            152.5644         estimate D2E/DX2                !
 ! D36   D(6,5,7,23)            34.6366         estimate D2E/DX2                !
 ! D37   D(21,5,7,8)            33.865          estimate D2E/DX2                !
 ! D38   D(21,5,7,9)           -84.0791         estimate D2E/DX2                !
 ! D39   D(21,5,7,23)          157.9931         estimate D2E/DX2                !
 ! D40   D(5,7,8,24)            68.3579         estimate D2E/DX2                !
 ! D41   D(9,7,8,24)          -179.9761         estimate D2E/DX2                !
 ! D42   D(23,7,8,24)          -55.8367         estimate D2E/DX2                !
 ! D43   D(5,7,9,10)           -36.4108         estimate D2E/DX2                !
 ! D44   D(5,7,9,11)          -155.313          estimate D2E/DX2                !
 ! D45   D(5,7,9,25)            82.5098         estimate D2E/DX2                !
 ! D46   D(8,7,9,10)          -154.4491         estimate D2E/DX2                !
 ! D47   D(8,7,9,11)            86.6487         estimate D2E/DX2                !
 ! D48   D(8,7,9,25)           -35.5285         estimate D2E/DX2                !
 ! D49   D(23,7,9,10)           81.4953         estimate D2E/DX2                !
 ! D50   D(23,7,9,11)          -37.4069         estimate D2E/DX2                !
 ! D51   D(23,7,9,25)         -159.5841         estimate D2E/DX2                !
 ! D52   D(7,9,10,3)            24.4828         estimate D2E/DX2                !
 ! D53   D(11,9,10,3)          143.4649         estimate D2E/DX2                !
 ! D54   D(25,9,10,3)          -94.4117         estimate D2E/DX2                !
 ! D55   D(7,9,11,12)          177.2474         estimate D2E/DX2                !
 ! D56   D(7,9,11,26)          -62.8203         estimate D2E/DX2                !
 ! D57   D(7,9,11,27)           57.1731         estimate D2E/DX2                !
 ! D58   D(10,9,11,12)          61.5468         estimate D2E/DX2                !
 ! D59   D(10,9,11,26)        -178.5208         estimate D2E/DX2                !
 ! D60   D(10,9,11,27)         -58.5274         estimate D2E/DX2                !
 ! D61   D(25,9,11,12)         -60.5874         estimate D2E/DX2                !
 ! D62   D(25,9,11,26)          59.345          estimate D2E/DX2                !
 ! D63   D(25,9,11,27)         179.3384         estimate D2E/DX2                !
 ! D64   D(9,11,12,13)         179.9627         estimate D2E/DX2                !
 ! D65   D(26,11,12,13)         60.0148         estimate D2E/DX2                !
 ! D66   D(27,11,12,13)        -59.9877         estimate D2E/DX2                !
 ! D67   D(11,12,13,14)         59.9533         estimate D2E/DX2                !
 ! D68   D(11,12,13,15)        179.9288         estimate D2E/DX2                !
 ! D69   D(11,12,13,16)        -60.0213         estimate D2E/DX2                !
 --------------------------------------------------------------------------------
 Trust Radius=3.00D-01 FncErr=1.00D-07 GrdErr=1.00D-07
 Number of steps in this run=    154 maximum allowed number of steps=    162.
 GradGradGradGradGradGradGradGradGradGradGradGradGradGradGradGradGradGrad

                          Input orientation:                          
 ---------------------------------------------------------------------
 Center     Atomic      Atomic             Coordinates (Angstroms)
 Number     Number       Type             X           Y           Z
 ---------------------------------------------------------------------
      1          8           0        2.812000   -0.579000    2.931000
      2          6           0        1.439000   -0.819000    3.247000
      3          6           0        0.555000    0.120000    2.425000
      4          8           0        0.891000    1.478000    2.715000
      5          6           0       -0.930000   -0.134000    2.756000
      6          8           0       -1.433000    0.852000    3.659000
      7          6           0       -1.604000   -0.004000    1.362000
      8          8           0       -2.793000   -0.793000    1.287000
      9          6           0       -0.496000   -0.577000    0.443000
     10          8           0        0.740000   -0.137000    1.028000
     11          6           0       -0.639000   -0.021000   -0.975000
     12          8           0        0.428000   -0.511000   -1.788000
     13         15           0        0.216000    0.109000   -3.258000
     14          8           0        0.250000    1.586000   -3.180000
     15          8           0        1.391000   -0.403000   -4.232000
     16          8           0       -1.208000   -0.364000   -3.840000
     17          1           0        3.333000   -1.191000    3.470000
     18          1           0        1.187000   -1.853000    3.012000
     19          1           0        1.273000   -0.637000    4.309000
     20          1           0        1.824000    1.590000    2.490000
     21          1           0       -1.070000   -1.136000    3.163000
     22          1           0       -2.382000    0.688000    3.752000
     23          1           0       -1.812000    1.038000    1.123000
     24          1           0       -3.438000   -0.382000    1.880000
     25          1           0       -0.542000   -1.666000    0.429000
     26          1           0       -1.592000   -0.341000   -1.396000
     27          1           0       -0.603000    1.067000   -0.944000
 ---------------------------------------------------------------------
                    Distance matrix (angstroms):
                    1          2          3          4          5
     1  O    0.000000
     2  C    1.429190   0.000000
     3  C    2.416337   1.529334   0.000000
     4  O    2.822790   2.420648   1.428692   0.000000
     5  C    3.772428   2.514452   1.542499   2.432338   0.000000
     6  O    4.538477   3.348189   2.451678   2.585341   1.428501
     7  C    4.721593   3.671144   2.409694   3.201868   1.553838
     8  O    5.845046   4.663915   3.652084   4.557245   2.462318
     9  C    4.139204   3.415436   2.349199   3.362853   2.394697
    10  O    2.847799   2.424394   1.432440   2.340298   2.403101
    11  C    5.241908   4.772858   3.606316   4.266615   3.744037
    12  O    5.287442   5.144726   4.261884   4.944441   4.757544
    13  P    6.746576   6.683707   5.693113   6.164942   6.127035
    14  O    6.971039   6.964487   5.801569   5.930731   6.291812
    15  O    7.304710   7.490714   6.729641   7.214497   7.368280
    16  O    7.877377   7.578866   6.526304   7.125082   6.605861
    17  H    0.967732   1.943026   3.244693   3.695531   4.449743
    18  H    2.066461   1.089901   2.153305   3.357288   2.739012
    19  H    2.066584   1.090194   2.153608   2.675815   2.741902
    20  H    2.423878   2.554321   1.943061   0.966260   3.259977
    21  H    3.928613   2.530341   2.182385   3.298366   1.090529
    22  H    5.408971   4.138371   3.272541   3.523067   1.943194
    23  H    5.221583   4.304512   2.853177   3.167692   2.195039
    24  H    6.340813   5.083777   4.061167   4.785088   2.668135
    25  H    4.323296   3.547238   2.894343   4.142948   2.812916
    26  H    6.178575   5.565330   4.407059   5.135598   4.209536
    27  H    5.420993   5.029040   3.686181   3.973567   3.903758
                    6          7          8          9         10
     6  O    0.000000
     7  C    2.457272   0.000000
     8  O    3.190926   1.428939   0.000000
     9  C    3.641794   1.549372   2.456665   0.000000
    10  O    3.552775   2.371409   3.602708   1.436496   0.000000
    11  C    4.781895   2.528455   3.217506   1.529807   2.434565
    12  O    5.915311   3.782667   4.462061   2.415677   2.857810
    13  P    7.149555   4.966847   5.524917   3.830789   4.324915
    14  O    7.081184   5.157051   5.905386   4.284999   4.573412
    15  O    8.474543   6.357835   6.936665   5.044469   5.306803
    16  O    7.600282   5.229457   5.383530   4.346999   5.248205
    17  H    5.188866   5.497872   6.515502   4.919448   3.714556
    18  H    3.820999   3.732423   4.465381   3.325722   2.660962
    19  H    3.156273   4.166849   5.068449   4.251931   3.361406
    20  H    3.538256   3.945175   5.333159   3.777367   2.508990
    21  H    2.080848   2.193212   2.570166   2.835552   2.971923
    22  H    0.967546   2.606961   2.904911   4.013316   4.224652
    23  H    2.570901   1.089105   2.083703   2.191456   2.811113
    24  H    2.950868   1.942875   0.967778   3.279994   4.271020
    25  H    4.191313   2.181875   2.562283   1.090061   2.083307
    26  H    5.196302   2.778539   2.974087   2.153795   3.369809
    27  H    4.682172   2.732522   3.637727   2.153591   2.672461
                   11         12         13         14         15
    11  C    0.000000
    12  O    1.428131   0.000000
    13  P    2.441314   1.609423   0.000000
    14  O    2.869633   2.523243   1.479449   0.000000
    15  O    3.856796   2.629100   1.609797   2.522837   0.000000
    16  O    2.941026   2.628461   1.609419   2.522670   2.628685
    17  H    6.074842   6.045493   7.528059   7.838311   7.982049
    18  H    4.752543   5.041532   6.641173   7.144617   7.390511
    19  H    5.652951   6.156566   7.676800   7.878666   8.545020
    20  H    4.546198   4.966317   6.149677   5.884419   7.024587
    21  H    4.307207   5.210281   6.665813   7.027470   7.828144
    22  H    5.087756   6.326555   7.498329   7.469033   8.897756
    23  H    2.626597   3.986342   4.916196   4.802911   6.404039
    24  H    4.014442   5.330743   6.323910   6.563381   7.789495
    25  H    2.164867   2.681420   4.161629   4.922159   5.201594
    26  H    1.089885   2.064695   2.634086   3.207639   4.116434
    27  H    1.089037   2.065280   2.634980   2.448809   4.116780
                   16         17         18         19         20
    16  O    0.000000
    17  H    8.645271   0.000000
    18  H    7.409659   2.292013   0.000000
    19  H    8.522681   2.292256   1.779961   0.000000
    20  H    7.285605   3.312317   3.540127   2.927779   0.000000
    21  H    7.046775   4.414033   2.372960   2.655554   4.032275
    22  H    7.753931   6.022573   4.443202   3.927455   4.482933
    23  H    5.192474   6.078476   4.573861   4.740617   3.923505
    24  H    6.139350   7.002073   4.983562   5.306467   5.652391
    25  H    4.512551   4.948629   3.113888   4.405391   4.521859
    26  H    2.474090   6.975391   5.425813   6.390842   5.522573
    27  H    3.286427   6.330407   5.232632   5.832410   4.237477
                   21         22         23         24         25
    21  H    0.000000
    22  H    2.322766   0.000000
    23  H    3.072204   2.712755   0.000000
    24  H    2.796789   2.400921   2.287646   0.000000
    25  H    2.834509   4.468696   3.066945   3.484376   0.000000
    26  H    4.657144   5.308940   2.880174   3.760528   2.487720
    27  H    4.683882   5.035960   2.394788   4.255796   3.059108
                   26         27
    26  H    0.000000
    27  H    1.779013   0.000000
 Stoichiometry    C6H11O9P(2-)
 Framework group  C1[X(C6H11O9P)]
 Deg. of freedom    75
 Full point group                 C1      NOp   1
 Largest Abelian subgroup         C1      NOp   1
 Largest concise Abelian subgroup C1      NOp   1
                         Standard orientation:                         
 ---------------------------------------------------------------------
 Center     Atomic      Atomic             Coordinates (Angstroms)
 Number     Number       Type             X           Y           Z
 ---------------------------------------------------------------------
      1          8           0       -2.829641   -2.816965   -0.507941
      2          6           0       -3.138693   -1.445752   -0.766489
      3          6           0       -2.303627   -0.552911    0.152402
      4          8           0       -2.585035   -0.866214    1.517616
      5          6           0       -2.627068    0.930171   -0.121744
      6          8           0       -3.518990    1.454084    0.863448
      7          6           0       -1.227778    1.596932   -0.012980
      8          8           0       -1.151374    2.773220   -0.820678
      9          6           0       -0.320482    0.474309   -0.576083
     10          8           0       -0.909921   -0.750964   -0.112631
     11          6           0        1.102760    0.616496   -0.033428
     12          8           0        1.904982   -0.463170   -0.513344
     13         15           0        3.381171   -0.251355    0.091837
     14          8           0        3.314635   -0.262270    1.569749
     15          8           0        4.343516   -1.440397   -0.409677
     16          8           0        3.968559    1.161407   -0.407469
     17          1           0       -3.376803   -3.343714   -1.107654
     18          1           0       -2.910260   -1.211127   -1.806034
     19          1           0       -4.198131   -1.270037   -0.578769
     20          1           0       -2.365161   -1.798847    1.642147
     21          1           0       -3.041069    1.057507   -1.122564
     22          1           0       -3.607179    2.401056    0.685649
     23          1           0       -0.979214    1.819260    1.023811
     24          1           0       -1.736946    3.428296   -0.414998
     25          1           0       -0.314797    0.503571   -1.665736
     26          1           0        1.527337    1.561717   -0.371279
     27          1           0        1.080133    0.597329    1.055205
 ---------------------------------------------------------------------
 Rotational constants (GHZ):      0.8087620      0.2385805      0.2050249
 Standard basis: 6-31G(d) (6D, 7F)
 There are   266 symmetry adapted cartesian basis functions of A   symmetry.
 There are   266 symmetry adapted basis functions of A   symmetry.
   266 basis functions,   516 primitive gaussians,   266 cartesian basis functions
    68 alpha electrons       68 beta electrons
       nuclear repulsion energy      1376.2004894665 Hartrees.
 NAtoms=   27 NActive=   27 NUniq=   27 SFac= 1.00D+00 NAtFMM=   60 NAOKFM=F Big=F
 Integral buffers will be    131072 words long.
 Raffenetti 1 integral format.
 Two-electron integral symmetry is turned on.
 One-electron integrals computed using PRISM.
 NBasis=   266 RedAO= T EigKep=  1.36D-03  NBF=   266
 NBsUse=   266 1.00D-06 EigRej= -1.00D+00 NBFU=   266
 ExpMin= 9.98D-02 ExpMax= 1.94D+04 ExpMxC= 2.91D+03 IAcc=2 IRadAn=         4 AccDes= 0.00D+00
 Harris functional with IExCor=  205 and IRadAn=       4 diagonalized for initial guess.
 HarFok:  IExCor=  205 AccDes= 0.00D+00 IRadAn=         4 IDoV= 1 UseB2=F ITyADJ=14
 ICtDFT=  3500011 ScaDFX=  1.000000  1.000000  1.000000  1.000000
 FoFCou: FMM=F IPFlag=           0 FMFlag=      100000 FMFlg1=           0
         NFxFlg=           0 DoJE=T BraDBF=F KetDBF=T FulRan=T
         wScrn=  0.000000 ICntrl=     500 IOpCl=  0 I1Cent=   200000004 NGrid=           0
         NMat0=    1 NMatS0=      1 NMatT0=    0 NMatD0=    1 NMtDS0=    0 NMtDT0=    0
 Petite list used in FoFCou.
 Requested convergence on RMS density matrix=1.00D-08 within 128 cycles.
 Requested convergence on MAX density matrix=1.00D-06.
 Requested convergence on             energy=1.00D-06.
 No special actions if energy rises.
 Integral accuracy reduced to 1.0D-05 until final iterations.
 Initial convergence to 1.0D-05 achieved.  Increase integral accuracy.
 SCF Done:  E(RHF) =  -1247.94780182     A.U. after   14 cycles
            NFock= 14  Conv=0.38D-08     -V/T= 2.0021

 **********************************************************************

            Population analysis using the SCF density.

 **********************************************************************

 Orbital symmetries:
 BldTbl:  Degeneracy threshold= 1.00D-02
       Occupied  (A) (A) (A) (A) (A) (A) (A) (A) (A) (A) (A) (A)
                 (A) (A) (A) (A) (A) (A) (A) (A) (A) (A) (A) (A)
                 (A) (A) (A) (A) (A) (A) (A) (A) (A) (A) (A) (A)
                 (A) (A) (A) (A) (A) (A) (A) (A) (A) (A) (A) (A)
                 (A) (A) (A) (A) (A) (A) (A) (A) (A) (A) (A) (A)
                 (A) (A) (A) (A) (A) (A) (A) (A)
       Virtual   (A) (A) (A) (A) (A) (A) (A) (A) (A) (A) (A) (A)
                 (A) (A) (A) (A) (A) (A) (A) (A) (A) (A) (A) (A)
                 (A) (A) (A) (A) (A) (A) (A) (A) (A) (A) (A) (A)
                 (A) (A) (A) (A) (A) (A) (A) (A) (A) (A) (A) (A)
                 (A) (A) (A) (A) (A) (A) (A) (A) (A) (A) (A) (A)
                 (A) (A) (A) (A) (A) (A) (A) (A) (A) (A) (A) (A)
                 (A) (A) (A) (A) (A) (A) (A) (A) (A) (A) (A) (A)
                 (A) (A) (A) (A) (A) (A) (A) (A) (A) (A) (A) (A)
                 (A) (A) (A) (A) (A) (A) (A) (A) (A) (A) (A) (A)
                 (A) (A) (A) (A) (A) (A) (A) (A) (A) (A) (A) (A)
                 (A) (A) (A) (A) (A) (A) (A) (A) (A) (A) (A) (A)
                 (A) (A) (A) (A) (A) (A) (A) (A) (A) (A) (A) (A)
                 (A) (A) (A) (A) (A) (A) (A) (A) (A) (A) (A) (A)
                 (A) (A) (A) (A) (A) (A) (A) (A) (A) (A) (A) (A)
                 (A) (A) (A) (A) (A) (A) (A) (A) (A) (A) (A) (A)
                 (A) (A) (A) (A) (A) (A) (A) (A) (A) (A) (A) (A)
                 (A) (A) (A) (A) (A) (A)
 The electronic state is 1-A.
 Alpha  occ. eigenvalues --  -79.63462 -20.42080 -20.41896 -20.40839 -20.39106
 Alpha  occ. eigenvalues --  -20.37143 -20.24261 -20.06687 -20.05739 -20.05139
 Alpha  occ. eigenvalues --  -11.17409 -11.12807 -11.12762 -11.10670 -11.07042
 Alpha  occ. eigenvalues --  -10.99818  -7.15539  -5.05523  -5.05310  -5.05201
 Alpha  occ. eigenvalues --   -1.23911  -1.21401  -1.19697  -1.19561  -1.14939
 Alpha  occ. eigenvalues --   -1.05986  -0.87986  -0.87242  -0.84127  -0.79079
 Alpha  occ. eigenvalues --   -0.76663  -0.75566  -0.66546  -0.63145  -0.58548
 Alpha  occ. eigenvalues --   -0.56919  -0.54654  -0.53379  -0.50271  -0.48688
 Alpha  occ. eigenvalues --   -0.47031  -0.45460  -0.44049  -0.41258  -0.39998
 Alpha  occ. eigenvalues --   -0.39764  -0.38212  -0.36425  -0.34901  -0.33666
 Alpha  occ. eigenvalues --   -0.32838  -0.30838  -0.30674  -0.29284  -0.27373
 Alpha  occ. eigenvalues --   -0.25990  -0.24099  -0.22427  -0.18164  -0.17912
 Alpha  occ. eigenvalues --   -0.11934  -0.10376  -0.05494  -0.02330  -0.01905
 Alpha  occ. eigenvalues --    0.01089   0.02352   0.04815
 Alpha virt. eigenvalues --    0.32581   0.35354   0.39738   0.42192   0.44446
 Alpha virt. eigenvalues --    0.45564   0.47285   0.47656   0.49182   0.51746
 Alpha virt. eigenvalues --    0.52183   0.53370   0.57317   0.58311   0.60895
 Alpha virt. eigenvalues --    0.61636   0.63182   0.64336   0.66504   0.68888
 Alpha virt. eigenvalues --    0.70256   0.72325   0.72753   0.75161   0.76395
 Alpha virt. eigenvalues --    0.78899   0.81756   0.92019   0.94533   0.95530
 Alpha virt. eigenvalues --    0.97084   0.97983   0.99343   1.00755   1.01858
 Alpha virt. eigenvalues --    1.02488   1.03133   1.04734   1.05794   1.07160
 Alpha virt. eigenvalues --    1.07741   1.08936   1.10950   1.11567   1.14318
 Alpha virt. eigenvalues --    1.17910   1.20041   1.22382   1.23628   1.25242
 Alpha virt. eigenvalues --    1.26450   1.26894   1.28746   1.30231   1.31814
 Alpha virt. eigenvalues --    1.32344   1.34692   1.35147   1.36564   1.37021
 Alpha virt. eigenvalues --    1.38668   1.39749   1.40551   1.41465   1.43285
 Alpha virt. eigenvalues --    1.44912   1.46037   1.46783   1.48586   1.48927
 Alpha virt. eigenvalues --    1.49747   1.50214   1.52949   1.54917   1.56098
 Alpha virt. eigenvalues --    1.58127   1.60449   1.60864   1.61568   1.64069
 Alpha virt. eigenvalues --    1.69443   1.71120   1.72306   1.73196   1.74436
 Alpha virt. eigenvalues --    1.76540   1.77715   1.78039   1.78606   1.81120
 Alpha virt. eigenvalues --    1.81731   1.83496   1.87144   1.88032   1.89728
 Alpha virt. eigenvalues --    1.91997   1.94760   1.96207   1.98024   1.99564
 Alpha virt. eigenvalues --    2.00847   2.02438   2.04511   2.06475   2.09072
 Alpha virt. eigenvalues --    2.09481   2.13443   2.14816   2.16018   2.17267
 Alpha virt. eigenvalues --    2.18337   2.21164   2.24263   2.25688   2.26524
 Alpha virt. eigenvalues --    2.27272   2.29619   2.31029   2.32505   2.35449
 Alpha virt. eigenvalues --    2.36267   2.38572   2.42370   2.43254   2.44337
 Alpha virt. eigenvalues --    2.45541   2.50802   2.51355   2.52322   2.52954
 Alpha virt. eigenvalues --    2.54600   2.56336   2.57496   2.58449   2.58806
 Alpha virt. eigenvalues --    2.60018   2.61341   2.61672   2.63019   2.63182
 Alpha virt. eigenvalues --    2.65107   2.67196   2.69689   2.70464   2.70730
 Alpha virt. eigenvalues --    2.75076   2.79926   2.80917   2.84077   2.85566
 Alpha virt. eigenvalues --    2.86409   2.89934   2.92159   2.94171   2.94936
 Alpha virt. eigenvalues --    2.96850   2.98365   2.98858   3.01460   3.03530
 Alpha virt. eigenvalues --    3.03976   3.05330   3.07107   3.12201   3.13157
 Alpha virt. eigenvalues --    3.15545   3.20130   3.22517   3.25084   3.25929
 Alpha virt. eigenvalues --    3.32202   3.38947   3.41920   3.43482   3.43755
 Alpha virt. eigenvalues --    3.47411   3.51084   3.54698   3.56487   3.61607
 Alpha virt. eigenvalues --    3.64610   3.67355   4.29648   4.34112   4.38264
 Alpha virt. eigenvalues --    4.42818   4.54223   4.60263   4.61554   4.71420
 Alpha virt. eigenvalues --    4.73783   4.84928   4.91812   4.98213   5.06482
 Alpha virt. eigenvalues --    5.17972   5.29975   5.39022
          Condensed to atoms (all electrons):
               1          2          3          4          5          6
     1  O    8.380510   0.218542  -0.049124   0.000828   0.001514  -0.000008
     2  C    0.218542   4.863875   0.373291  -0.063624  -0.070820   0.002109
     3  C   -0.049124   0.373291   4.477882   0.234972   0.315960  -0.028669
     4  O    0.000828  -0.063624   0.234972   8.435154  -0.043849  -0.002515
     5  C    0.001514  -0.070820   0.315960  -0.043849   5.041073   0.171378
     6  O   -0.000008   0.002109  -0.028669  -0.002515   0.171378   8.417792
     7  C   -0.000050   0.005043  -0.067886   0.001996   0.352558  -0.039804
     8  O    0.000000  -0.000056   0.003615  -0.000005  -0.041620   0.000165
     9  C    0.000103   0.001027  -0.035744   0.003387  -0.080772   0.003759
    10  O    0.002628  -0.061419   0.248064  -0.056702  -0.043486   0.000658
    11  C    0.000000  -0.000124   0.001665  -0.000087   0.003682  -0.000055
    12  O    0.000000  -0.000003   0.000142   0.000000  -0.000068   0.000000
    13  P    0.000000  -0.000001   0.000019   0.000000  -0.000013   0.000000
    14  O    0.000000   0.000000   0.000000   0.000000   0.000000   0.000000
    15  O    0.000000   0.000000   0.000000   0.000000   0.000000   0.000000
    16  O    0.000000   0.000000   0.000000   0.000000   0.000000   0.000000
    17  H    0.258465  -0.024491   0.006206  -0.000127  -0.000157   0.000001
    18  H   -0.036093   0.380000  -0.033431   0.003445  -0.000489   0.000124
    19  H   -0.039877   0.380191  -0.040608   0.000954   0.000638   0.000511
    20  H    0.008310  -0.008135  -0.018547   0.254972   0.005878  -0.000074
    21  H    0.000085  -0.004288  -0.049621   0.002385   0.397074  -0.035289
    22  H    0.000001  -0.000301   0.006236   0.000010  -0.027303   0.251649
    23  H    0.000001  -0.000001   0.001196   0.000523  -0.050606   0.001612
    24  H    0.000000  -0.000003   0.000073   0.000002  -0.007006   0.002119
    25  H   -0.000001   0.001040  -0.001523  -0.000193  -0.003706  -0.000022
    26  H    0.000000   0.000005   0.000018  -0.000001  -0.000023   0.000000
    27  H    0.000000   0.000010  -0.000192   0.000008  -0.000253  -0.000001
               7          8          9         10         11         12
     1  O   -0.000050   0.000000   0.000103   0.002628   0.000000   0.000000
     2  C    0.005043  -0.000056   0.001027  -0.061419  -0.000124  -0.000003
     3  C   -0.067886   0.003615  -0.035744   0.248064   0.001665   0.000142
     4  O    0.001996  -0.000005   0.003387  -0.056702  -0.000087   0.000000
     5  C    0.352558  -0.041620  -0.080772  -0.043486   0.003682  -0.000068
     6  O   -0.039804   0.000165   0.003759   0.000658  -0.000055   0.000000
     7  C    5.010909   0.162538   0.308714  -0.037068  -0.046414   0.002136
     8  O    0.162538   8.428431  -0.030845   0.000918   0.001530  -0.000005
     9  C    0.308714  -0.030845   4.995209   0.147814   0.306859  -0.045086
    10  O   -0.037068   0.000918   0.147814   8.515866  -0.038030   0.002880
    11  C   -0.046414   0.001530   0.306859  -0.038030   4.840129   0.228231
    12  O    0.002136  -0.000005  -0.045086   0.002880   0.228231   8.524379
    13  P    0.000315  -0.000008   0.005076  -0.000356  -0.032626   0.165533
    14  O    0.000019   0.000000   0.000369   0.000002  -0.008600  -0.032582
    15  O    0.000000   0.000000  -0.000003   0.000000   0.000048  -0.027252
    16  O   -0.000003   0.000000   0.000326  -0.000001  -0.009501  -0.027834
    17  H    0.000005   0.000000  -0.000004  -0.000207   0.000000   0.000000
    18  H   -0.000379  -0.000012   0.000154   0.000322  -0.000003   0.000001
    19  H   -0.000001  -0.000001  -0.000045   0.003408   0.000005   0.000000
    20  H   -0.000346   0.000001  -0.000053   0.001782  -0.000019   0.000000
    21  H   -0.047358   0.003397   0.002144   0.003569  -0.000112   0.000001
    22  H   -0.006042   0.002491   0.000206  -0.000086  -0.000011   0.000000
    23  H    0.394208  -0.032495  -0.031341   0.001983  -0.001402   0.000007
    24  H   -0.023755   0.249076   0.005390  -0.000106  -0.000242   0.000001
    25  H   -0.056369   0.003486   0.387115  -0.041798  -0.030194   0.002085
    26  H    0.000735   0.000882  -0.046910   0.002675   0.373564  -0.035714
    27  H   -0.004950   0.000216  -0.042340  -0.000963   0.379488  -0.035592
              13         14         15         16         17         18
     1  O    0.000000   0.000000   0.000000   0.000000   0.258465  -0.036093
     2  C   -0.000001   0.000000   0.000000   0.000000  -0.024491   0.380000
     3  C    0.000019   0.000000   0.000000   0.000000   0.006206  -0.033431
     4  O    0.000000   0.000000   0.000000   0.000000  -0.000127   0.003445
     5  C   -0.000013   0.000000   0.000000   0.000000  -0.000157  -0.000489
     6  O    0.000000   0.000000   0.000000   0.000000   0.000001   0.000124
     7  C    0.000315   0.000019   0.000000  -0.000003   0.000005  -0.000379
     8  O   -0.000008   0.000000   0.000000   0.000000   0.000000  -0.000012
     9  C    0.005076   0.000369  -0.000003   0.000326  -0.000004   0.000154
    10  O   -0.000356   0.000002   0.000000  -0.000001  -0.000207   0.000322
    11  C   -0.032626  -0.008600   0.000048  -0.009501   0.000000  -0.000003
    12  O    0.165533  -0.032582  -0.027252  -0.027834   0.000000   0.000001
    13  P   11.915944   0.536772   0.510458   0.477235   0.000000   0.000000
    14  O    0.536772   8.500170  -0.052452  -0.051816   0.000000   0.000000
    15  O    0.510458  -0.052452   8.594016  -0.043416   0.000000   0.000000
    16  O    0.477235  -0.051816  -0.043416   8.644964   0.000000   0.000000
    17  H    0.000000   0.000000   0.000000   0.000000   0.342908  -0.003884
    18  H    0.000000   0.000000   0.000000   0.000000  -0.003884   0.589169
    19  H    0.000000   0.000000   0.000000   0.000000  -0.004115  -0.043929
    20  H    0.000000   0.000000   0.000000   0.000000  -0.000263   0.000262
    21  H    0.000000   0.000000   0.000000   0.000000  -0.000016   0.001902
    22  H    0.000000   0.000000   0.000000   0.000000   0.000000   0.000001
    23  H   -0.000031  -0.000020   0.000000   0.000003   0.000000  -0.000011
    24  H    0.000000   0.000000   0.000000   0.000000   0.000000   0.000001
    25  H   -0.000224  -0.000011  -0.000002   0.000031   0.000001   0.000008
    26  H    0.003246  -0.001577  -0.000004   0.021295   0.000000   0.000000
    27  H   -0.003013   0.018523  -0.000031  -0.001447   0.000000   0.000000
              19         20         21         22         23         24
     1  O   -0.039877   0.008310   0.000085   0.000001   0.000001   0.000000
     2  C    0.380191  -0.008135  -0.004288  -0.000301  -0.000001  -0.000003
     3  C   -0.040608  -0.018547  -0.049621   0.006236   0.001196   0.000073
     4  O    0.000954   0.254972   0.002385   0.000010   0.000523   0.000002
     5  C    0.000638   0.005878   0.397074  -0.027303  -0.050606  -0.007006
     6  O    0.000511  -0.000074  -0.035289   0.251649   0.001612   0.002119
     7  C   -0.000001  -0.000346  -0.047358  -0.006042   0.394208  -0.023755
     8  O   -0.000001   0.000001   0.003397   0.002491  -0.032495   0.249076
     9  C   -0.000045  -0.000053   0.002144   0.000206  -0.031341   0.005390
    10  O    0.003408   0.001782   0.003569  -0.000086   0.001983  -0.000106
    11  C    0.000005  -0.000019  -0.000112  -0.000011  -0.001402  -0.000242
    12  O    0.000000   0.000000   0.000001   0.000000   0.000007   0.000001
    13  P    0.000000   0.000000   0.000000   0.000000  -0.000031   0.000000
    14  O    0.000000   0.000000   0.000000   0.000000  -0.000020   0.000000
    15  O    0.000000   0.000000   0.000000   0.000000   0.000000   0.000000
    16  O    0.000000   0.000000   0.000000   0.000000   0.000003   0.000000
    17  H   -0.004115  -0.000263  -0.000016   0.000000   0.000000   0.000000
    18  H   -0.043929   0.000262   0.001902   0.000001  -0.000011   0.000001
    19  H    0.611141  -0.000071   0.000371  -0.000021  -0.000001  -0.000001
    20  H   -0.000071   0.296721  -0.000109   0.000016   0.000009   0.000000
    21  H    0.000371  -0.000109   0.566572  -0.002306   0.003907   0.000228
    22  H   -0.000021   0.000016  -0.002306   0.360474   0.000315   0.002803
    23  H   -0.000001   0.000009   0.003907   0.000315   0.505682  -0.002842
    24  H   -0.000001   0.000000   0.000228   0.002803  -0.002842   0.366342
    25  H   -0.000029   0.000015   0.000523   0.000006   0.004214  -0.000217
    26  H    0.000000   0.000000   0.000003  -0.000001   0.000190  -0.000004
    27  H    0.000000   0.000015  -0.000012   0.000001   0.004301  -0.000002
              25         26         27
     1  O   -0.000001   0.000000   0.000000
     2  C    0.001040   0.000005   0.000010
     3  C   -0.001523   0.000018  -0.000192
     4  O   -0.000193  -0.000001   0.000008
     5  C   -0.003706  -0.000023  -0.000253
     6  O   -0.000022   0.000000  -0.000001
     7  C   -0.056369   0.000735  -0.004950
     8  O    0.003486   0.000882   0.000216
     9  C    0.387115  -0.046910  -0.042340
    10  O   -0.041798   0.002675  -0.000963
    11  C   -0.030194   0.373564   0.379488
    12  O    0.002085  -0.035714  -0.035592
    13  P   -0.000224   0.003246  -0.003013
    14  O   -0.000011  -0.001577   0.018523
    15  O   -0.000002  -0.000004  -0.000031
    16  O    0.000031   0.021295  -0.001447
    17  H    0.000001   0.000000   0.000000
    18  H    0.000008   0.000000   0.000000
    19  H   -0.000029   0.000000   0.000000
    20  H    0.000015   0.000000   0.000015
    21  H    0.000523   0.000003  -0.000012
    22  H    0.000006  -0.000001   0.000001
    23  H    0.004214   0.000190   0.004301
    24  H   -0.000217  -0.000004  -0.000002
    25  H    0.572283  -0.001585   0.004698
    26  H   -0.001585   0.537602  -0.037958
    27  H    0.004698  -0.037958   0.547705
 Mulliken charges:
               1
     1  O   -0.745835
     2  C    0.008135
     3  C    0.656007
     4  O   -0.771533
     5  C    0.080416
     6  O   -0.745441
     7  C    0.091249
     8  O   -0.751699
     9  C    0.145494
    10  O   -0.652346
    11  C    0.032221
    12  O   -0.721261
    13  P    1.421674
    14  O   -0.908797
    15  O   -0.981362
    16  O   -1.009835
    17  H    0.425678
    18  H    0.142843
    19  H    0.131479
    20  H    0.459637
    21  H    0.156948
    22  H    0.411862
    23  H    0.200600
    24  H    0.408142
    25  H    0.160370
    26  H    0.183562
    27  H    0.171789
 Sum of Mulliken charges =  -2.00000
 Mulliken charges with hydrogens summed into heavy atoms:
               1
     1  O   -0.320156
     2  C    0.282457
     3  C    0.656007
     4  O   -0.311896
     5  C    0.237364
     6  O   -0.333579
     7  C    0.291849
     8  O   -0.343557
     9  C    0.305864
    10  O   -0.652346
    11  C    0.387573
    12  O   -0.721261
    13  P    1.421674
    14  O   -0.908797
    15  O   -0.981362
    16  O   -1.009835
 DipInt: DoE/N= T F RetVal/Mat= T F Init=T NMatP=  1 IDeriv=0 Min/MaxMlt=  0  4
 Entering OneElI...
 OneElI was handed    33370756 working-precision words.
 Multipole integrals L=0 to 4 MinM= 0 MaxM= 0.
 Requested accuracy = 0.1000D-12
 ShPair: Thresh= 1.00D-13 NBox=     0 BxSize= 0.00D+00 RnKept= 1.68D+01
         NSMCal=                 3828 NSMKep=                3146
 PrsmSu:  NPrtUS=   1 ThrOK=F IAlg=1 NPAlg=1 LenDen=           0.
 Prism:   IPart=     0 DynPar=F LinDyn=F Incr=          31.
 PRISM was handed    33079312 working-precision words and  3146 shell-pairs
 IPart=  0 NShTot=        3146 NBatch=          61 AvBLen=        51.6
 PrSmSu:  NxtVal=             32.
 Electronic moments (au):
       -136.00000000        -14.04988693          1.58486119         -1.31869777
      -3831.99728712      -1024.29665871       -360.71930529          5.99081062
          7.03953092          4.19589660      -6247.71566077       -146.24946986
       -336.02353428       2399.69147458       1922.14884885       -555.80678092
        209.17043875         82.28928951        643.27315424        369.98522263
    -170549.81410708     -21594.02332374      -2937.65760759       3250.49305258
       2437.14797705      -2977.19359597         -8.08559793       -602.56514577
        367.81049094     -26609.75545823     -10545.01634100      -2441.98820408
      -2955.40467025      -1109.60338941       -273.68214769
 Electronic spatial extent (au):  <R**2>=           5217.0133
 DipInt: DoE/N= F T RetVal/Mat= T F Init=T NMatP=  1 IDeriv=0 Min/MaxMlt=  0  4
 Nuclear    moments (au):
        134.00000000          0.00000000          0.00000000          0.00000000
       3647.43166994        942.86960814        274.29682690          0.00000000
          0.00000000          0.00000000       5385.28444502        174.62529784
        310.22166127      -2568.42547790      -1873.13350213        496.99631065
       -268.92928875       -101.48519333       -621.33431974       -385.71451451
     151177.04762404      18753.89010706       1718.81851891      -2575.84963788
      -1848.03555071       2944.65725428        181.73796273        502.83406199
       -343.15491800      23732.57940205       7814.16355148       1752.98862044
       3065.98926154       1220.89452347        414.81511248
 Total      moments (au):
         -2.00000000        -14.04988693          1.58486119         -1.31869777
       -184.56561717        -81.42705058        -86.42247838          5.99081062
          7.03953092          4.19589660       -862.43121575         28.37582798
        -25.80187301       -168.73400332         49.01534672        -58.81047027
        -59.75885000        -19.19590382         21.93883450        -15.72929188
     -19372.76648304      -2840.13321668      -1218.83908868        674.64341470
        589.11242633        -32.53634168        173.65236480        -99.73108377
         24.65557294      -2877.17605618      -2730.85278952       -688.99958364
        110.58459129        111.29113407        141.13296479
 Traceless Quadrup. (au):
        -67.09390180         36.04466480         31.04923699          5.99081062
          7.03953092          4.19589660
 Charge=             -2.0000 electrons
 Dipole moment (field-independent basis, Debye):
    X=            -35.7112    Y=              4.0283    Z=             -3.3518  Tot=             36.0937
 Quadrupole moment (field-independent basis, Debye-Ang):
   XX=           -248.2471   YY=           -109.5222   ZZ=           -116.2412
   XY=              8.0578   XZ=              9.4684   YZ=              5.6436
 Traceless Quadrupole moment (field-independent basis, Debye-Ang):
   XX=            -90.2436   YY=             48.4813   ZZ=             41.7623
   XY=              8.0578   XZ=              9.4684   YZ=              5.6436
 Octapole moment (field-independent basis, Debye-Ang**2):
  XXX=           -613.8453  YYY=             20.1968  ZZZ=            -18.3648  XYY=           -120.0984
  XXY=             34.8872  XXZ=            -41.8590  XZZ=            -42.5340  YZZ=            -13.6629
  YYZ=             15.6152  XYZ=            -11.1955
 Hexadecapole moment (field-independent basis, Debye-Ang**3):
 XXXX=          -7296.7123 YYYY=          -1069.7303 ZZZZ=           -459.0732 XXXY=            254.1030
 XXXZ=            221.8880 YYYX=            -12.2547 YYYZ=             65.4058 ZZZX=            -37.5635
 ZZZY=              9.2865 XXYY=          -1083.6824 XXZZ=          -1028.5700 YYZZ=           -259.5103
 XXYZ=             41.6515 YYXZ=             41.9176 ZZXY=             53.1574
 N-N= 1.376200489466D+03 E-N=-5.744955541239D+03  KE= 1.245276687916D+03
 Entering OneElI...
 OneElI was handed    33405326 working-precision words.
 Calculate electrostatic properties
    NBasis =   266  MinDer = 0  MaxDer = 0
    NGrid  =    27  NMatD  =   1
 Requested accuracy = 0.1000D-12
 ShPair: Thresh= 1.00D-13 NBox=     0 BxSize= 0.00D+00 RnKept= 1.61D+01
         NSMCal=                 3828 NSMKep=                2824
 PrsmSu:  NPrtUS=   1 ThrOK=F IAlg=1 NPAlg=1 LenDen=           0.
 Prism:   IPart=     0 DynPar=F LinDyn=F Incr=         512.
 PRISM was handed    33140535 working-precision words and  2824 shell-pairs
 IPart=  0 NShTot=       76248 NBatch=        2824 AvBLen=        27.0
 PrSmSu:  NxtVal=            513.
 --------------------------------------------------------
       Center         ----      EFG at Nuclei      ----
                      3XX-RR        3YY-RR        3ZZ-RR
 --------------------------------------------------------
     1   Atom        0.915465     -1.610562      0.695097
     2   Atom        0.145183     -0.310436      0.165253
     3   Atom       -0.099863      0.252517     -0.152654
     4   Atom        1.639319     -0.768500     -0.870819
     5   Atom       -0.008530      0.100506     -0.091975
     6   Atom        0.909311     -1.318962      0.409652
     7   Atom        0.138437     -0.188738      0.050302
     8   Atom        0.808834     -1.276494      0.467660
     9   Atom        0.216870     -0.353673      0.136803
    10   Atom       -1.433338     -0.100036      1.533374
    11   Atom       -0.129880     -0.029137      0.159016
    12   Atom       -0.791693     -0.208861      1.000553
    13   Atom       -0.587370      0.188998      0.398372
    14   Atom        0.311338      0.529955     -0.841293
    15   Atom       -0.402259     -0.241936      0.644195
    16   Atom        0.073828     -0.707175      0.633347
    17   Atom        0.022625     -0.000033     -0.022592
    18   Atom        0.142324      0.113462     -0.255786
    19   Atom       -0.273615      0.125785      0.147831
    20   Atom        0.220024     -0.404675      0.184650
    21   Atom        0.086502      0.139097     -0.225599
    22   Atom        0.231095     -0.434001      0.202906
    23   Atom        0.133948      0.117620     -0.251568
    24   Atom       -0.007624     -0.099388      0.107012
    25   Atom        0.154380      0.143068     -0.297448
    26   Atom        0.092524     -0.197711      0.105188
    27   Atom        0.140906      0.148445     -0.289352
 --------------------------------------------------------
                        XY            XZ            YZ
 --------------------------------------------------------
     1   Atom       -0.276744     -1.213103     -0.455352
     2   Atom        0.130980     -0.015331      0.110594
     3   Atom        0.043570      0.117786      0.100302
     4   Atom        0.462923      0.446189      0.966487
     5   Atom        0.160171      0.215110     -0.148723
     6   Atom        0.889962      1.212373     -0.209996
     7   Atom       -0.085078     -0.015804      0.279937
     8   Atom        1.135498      0.872007      0.513300
     9   Atom       -0.151616      0.152208      0.119821
    10   Atom       -0.485635      0.811165      0.726757
    11   Atom        0.201049     -0.011556     -0.150972
    12   Atom        1.090744      0.019361     -0.862783
    13   Atom       -0.170606     -0.385506     -0.041887
    14   Atom        0.021537     -0.167448      0.017586
    15   Atom        0.928746      0.217846     -0.322393
    16   Atom       -0.744599      0.155298      0.398307
    17   Atom       -0.203509     -0.260450     -0.224583
    18   Atom       -0.020619      0.085957      0.090869
    19   Atom        0.068849      0.072321     -0.011475
    20   Atom        0.155231     -0.007258      0.092329
    21   Atom        0.028676     -0.153504      0.042933
    22   Atom        0.068744      0.018046      0.125312
    23   Atom       -0.020331     -0.092515     -0.085212
    24   Atom        0.287950      0.193925     -0.176854
    25   Atom       -0.005194     -0.004836      0.012876
    26   Atom       -0.127957      0.046384      0.118802
    27   Atom        0.007093      0.031316     -0.003015
 --------------------------------------------------------


 ---------------------------------------------------------------------------------
              Nuclear Quadrupole Coupling Constant in Principal Axis System
 ---------------------------------------------------------------------------------

       Atom             a.u.   MegaHertz   Gauss  10(-4) cm-1        Axes


 ---------------------------------------------------------------------------------

 No NMR shielding tensors so no spin-rotation constants.
 Leave Link  601 at Fri Mar 31 07:03:04 2017, MaxMem=    33554432 cpu:         0.2
 FitSet:  NAtFit=    27 NAtPot=    27 NAtFrz=     0 MDM=    31 TotChg=  -2.00000
 Merz-Kollman atomic radii used.
 Atom Element Radius
    1     8    1.40
    2     6    1.50
    3     6    1.50
    4     8    1.40
    5     6    1.50
    6     8    1.40
    7     6    1.50
    8     8    1.40
    9     6    1.50
   10     8    1.40
   11     6    1.50
   12     8    1.40
   13    15    1.80
   14     8    1.40
   15     8    1.40
   16     8    1.40
   17     1    1.20
   18     1    1.20
   19     1    1.20
   20     1    1.20
   21     1    1.20
   22     1    1.20
   23     1    1.20
   24     1    1.20
   25     1    1.20
   26     1    1.20
   27     1    1.20
 Generate VDW surfaces: Layer= 4 Dens= 6 Start= 1.400 Inc= 0.200

 **********************************************************************

            Electrostatic Properties Using The SCF Density

 **********************************************************************

       Atomic Center    1 is at  -2.829641 -2.816965 -0.507941
       Atomic Center    2 is at  -3.138693 -1.445752 -0.766489
       Atomic Center    3 is at  -2.303627 -0.552911  0.152402
       Atomic Center    4 is at  -2.585035 -0.866214  1.517616
       Atomic Center    5 is at  -2.627068  0.930171 -0.121744
       Atomic Center    6 is at  -3.518990  1.454084  0.863448
       Atomic Center    7 is at  -1.227778  1.596932 -0.012980
       Atomic Center    8 is at  -1.151374  2.773220 -0.820678
       Atomic Center    9 is at  -0.320482  0.474309 -0.576083
       Atomic Center   10 is at  -0.909921 -0.750964 -0.112631
       Atomic Center   11 is at   1.102760  0.616496 -0.033428
       Atomic Center   12 is at   1.904982 -0.463170 -0.513344
       Atomic Center   13 is at   3.381171 -0.251355  0.091837
       Atomic Center   14 is at   3.314635 -0.262270  1.569749
       Atomic Center   15 is at   4.343516 -1.440397 -0.409677
       Atomic Center   16 is at   3.968559  1.161407 -0.407469
       Atomic Center   17 is at  -3.376803 -3.343714 -1.107654
       Atomic Center   18 is at  -2.910260 -1.211127 -1.806034
       Atomic Center   19 is at  -4.198131 -1.270037 -0.578769
       Atomic Center   20 is at  -2.365161 -1.798847  1.642147
       Atomic Center   21 is at  -3.041069  1.057507 -1.122564
       Atomic Center   22 is at  -3.607179  2.401056  0.685649
       Atomic Center   23 is at  -0.979214  1.819260  1.023811
       Atomic Center   24 is at  -1.736946  3.428296 -0.414998
       Atomic Center   25 is at  -0.314797  0.503571 -1.665736
       Atomic Center   26 is at   1.527337  1.561717 -0.371279
       Atomic Center   27 is at   1.080133  0.597329  1.055205
      ESP Fit Center   28 is at  -3.520040 -3.215567  1.282608
      ESP Fit Center   29 is at  -3.228243 -3.507364  1.282608
      ESP Fit Center   30 is at  -2.829641 -3.614169  1.282608
      ESP Fit Center   31 is at  -2.431039 -3.507364  1.282608
      ESP Fit Center   32 is at  -3.962084 -2.605275  1.077732
      ESP Fit Center   33 is at  -3.962084 -3.028655  1.077732
      ESP Fit Center   34 is at  -3.809142 -3.423446  1.077732
      ESP Fit Center   35 is at  -3.523912 -3.736328  1.077732
      ESP Fit Center   36 is at  -3.144917 -3.925045  1.077732
      ESP Fit Center   37 is at  -2.723343 -3.964110  1.077732
      ESP Fit Center   38 is at  -2.316124 -3.848246  1.077732
      ESP Fit Center   39 is at  -1.978259 -3.593102  1.077732
      ESP Fit Center   40 is at  -4.227204 -2.406604  0.803555
      ESP Fit Center   41 is at  -4.286205 -2.816965  0.803555
      ESP Fit Center   42 is at  -4.227204 -3.227327  0.803555
      ESP Fit Center   43 is at  -4.054981 -3.604443  0.803555
      ESP Fit Center   44 is at  -3.783488 -3.917763  0.803555
      ESP Fit Center   45 is at  -3.434720 -4.141902  0.803555
      ESP Fit Center   46 is at  -3.036932 -4.258703  0.803555
      ESP Fit Center   47 is at  -2.622351 -4.258703  0.803555
      ESP Fit Center   48 is at  -2.224563 -4.141902  0.803555
      ESP Fit Center   49 is at  -1.875795 -3.917763  0.803555
      ESP Fit Center   50 is at  -1.604302 -3.604443  0.803555
      ESP Fit Center   51 is at  -1.432079 -3.227327  0.803555
      ESP Fit Center   52 is at  -1.132232 -2.816965  0.472059
      ESP Fit Center   53 is at  -4.513667 -2.604223  0.472059
      ESP Fit Center   54 is at  -4.513667 -3.029707  0.472059
      ESP Fit Center   55 is at  -4.407853 -3.441823  0.472059
      ESP Fit Center   56 is at  -4.202875 -3.814678  0.472059
      ESP Fit Center   57 is at  -3.911611 -4.124842  0.472059
      ESP Fit Center   58 is at  -3.552363 -4.352827  0.472059
      ESP Fit Center   59 is at  -3.147704 -4.484309  0.472059
      ESP Fit Center   60 is at  -2.723060 -4.511026  0.472059
      ESP Fit Center   61 is at  -2.305113 -4.431298  0.472059
      ESP Fit Center   62 is at  -1.920124 -4.250136  0.472059
      ESP Fit Center   63 is at  -1.592283 -3.978922  0.472059
      ESP Fit Center   64 is at  -1.342190 -3.634699  0.472059
      ESP Fit Center   65 is at  -1.185559 -3.239094  0.472059
      ESP Fit Center   66 is at  -0.965571 -2.816965  0.097732
      ESP Fit Center   67 is at  -4.693712 -2.816965  0.097732
      ESP Fit Center   68 is at  -4.646976 -3.231760  0.097732
      ESP Fit Center   69 is at  -3.638431 -4.496435  0.097732
      ESP Fit Center   70 is at  -3.244436 -4.634300  0.097732
      ESP Fit Center   71 is at  -2.829641 -4.681036  0.097732
      ESP Fit Center   72 is at  -2.414847 -4.634300  0.097732
      ESP Fit Center   73 is at  -2.020851 -4.496435  0.097732
      ESP Fit Center   74 is at  -1.667412 -4.274354  0.097732
      ESP Fit Center   75 is at  -1.372252 -3.979194  0.097732
      ESP Fit Center   76 is at  -1.150172 -3.625755  0.097732
      ESP Fit Center   77 is at  -1.012307 -3.231760  0.097732
      ESP Fit Center   78 is at  -0.880378 -2.816965 -0.303065
      ESP Fit Center   79 is at  -2.724110 -4.763369 -0.303065
      ESP Fit Center   80 is at  -2.308158 -4.695177 -0.303065
      ESP Fit Center   81 is at  -1.916590 -4.539162 -0.303065
      ESP Fit Center   82 is at  -1.567715 -4.302619 -0.303065
      ESP Fit Center   83 is at  -1.277847 -3.996609 -0.303065
      ESP Fit Center   84 is at  -1.060538 -3.635439 -0.303065
      ESP Fit Center   85 is at  -0.925951 -3.235999 -0.303065
      ESP Fit Center   86 is at  -0.880378 -2.816965 -0.712817
      ESP Fit Center   87 is at  -2.308158 -4.695177 -0.712817
      ESP Fit Center   88 is at  -1.916590 -4.539162 -0.712817
      ESP Fit Center   89 is at  -1.567715 -4.302619 -0.712817
      ESP Fit Center   90 is at  -1.277847 -3.996609 -0.712817
      ESP Fit Center   91 is at  -1.060538 -3.635439 -0.712817
      ESP Fit Center   92 is at  -0.925951 -3.235999 -0.712817
      ESP Fit Center   93 is at  -0.965571 -2.816965 -1.113614
      ESP Fit Center   94 is at  -2.020851 -4.496435 -1.113614
      ESP Fit Center   95 is at  -1.667412 -4.274354 -1.113614
      ESP Fit Center   96 is at  -1.372252 -3.979194 -1.113614
      ESP Fit Center   97 is at  -1.150172 -3.625755 -1.113614
      ESP Fit Center   98 is at  -1.012307 -3.231760 -1.113614
      ESP Fit Center   99 is at  -1.132232 -2.816965 -1.487941
      ESP Fit Center  100 is at  -1.185559 -2.394837 -1.487941
      ESP Fit Center  101 is at  -1.920124 -4.250136 -1.487941
      ESP Fit Center  102 is at  -1.592283 -3.978922 -1.487941
      ESP Fit Center  103 is at  -1.342190 -3.634699 -1.487941
      ESP Fit Center  104 is at  -1.185559 -3.239094 -1.487941
      ESP Fit Center  105 is at  -1.373077 -2.816965 -1.819437
      ESP Fit Center  106 is at  -1.432079 -2.406604 -1.819437
      ESP Fit Center  107 is at  -1.875795 -3.917763 -1.819437
      ESP Fit Center  108 is at  -1.604302 -3.604443 -1.819437
      ESP Fit Center  109 is at  -1.432079 -3.227327 -1.819437
      ESP Fit Center  110 is at  -1.677582 -2.816965 -2.093614
      ESP Fit Center  111 is at  -1.755378 -2.400793 -2.093614
      ESP Fit Center  112 is at  -1.978259 -3.593102 -2.093614
      ESP Fit Center  113 is at  -1.755378 -3.233137 -2.093614
      ESP Fit Center  114 is at  -2.032437 -2.816965 -2.298490
      ESP Fit Center  115 is at  -2.139243 -3.215567 -2.298490
      ESP Fit Center  116 is at  -2.422134 -2.816965 -2.425110
      ESP Fit Center  117 is at  -4.130639 -2.059939  0.979598
      ESP Fit Center  118 is at  -4.130583 -0.008751 -1.933186
      ESP Fit Center  119 is at  -4.445657 -0.287883 -1.933186
      ESP Fit Center  120 is at  -4.684776 -2.257199 -1.933186
      ESP Fit Center  121 is at  -1.592610 -2.257199 -1.933186
      ESP Fit Center  122 is at  -4.563467 -1.027401 -2.251413
      ESP Fit Center  123 is at  -4.623617 -1.445752 -2.251413
      ESP Fit Center  124 is at  -4.563467 -1.864104 -2.251413
      ESP Fit Center  125 is at  -4.387891 -2.248563 -2.251413
      ESP Fit Center  126 is at  -2.585035 -0.866214  3.477616
      ESP Fit Center  127 is at  -2.177528 -0.866214  3.434786
      ESP Fit Center  128 is at  -2.381282 -0.513302  3.434786
      ESP Fit Center  129 is at  -2.788788 -0.513302  3.434786
      ESP Fit Center  130 is at  -2.992542 -0.866214  3.434786
      ESP Fit Center  131 is at  -2.788788 -1.219125  3.434786
      ESP Fit Center  132 is at  -2.381282 -1.219125  3.434786
      ESP Fit Center  133 is at  -1.787831 -0.866214  3.308165
      ESP Fit Center  134 is at  -1.894636 -0.467612  3.308165
      ESP Fit Center  135 is at  -2.186433 -0.175815  3.308165
      ESP Fit Center  136 is at  -2.585035 -0.069010  3.308165
      ESP Fit Center  137 is at  -2.983637 -0.175815  3.308165
      ESP Fit Center  138 is at  -3.275434 -0.467612  3.308165
      ESP Fit Center  139 is at  -3.382239 -0.866214  3.308165
      ESP Fit Center  140 is at  -3.275434 -1.264815  3.308165
      ESP Fit Center  141 is at  -2.983637 -1.556612  3.308165
      ESP Fit Center  142 is at  -2.585035 -1.663417  3.308165
      ESP Fit Center  143 is at  -2.186433 -1.556612  3.308165
      ESP Fit Center  144 is at  -1.894636 -1.264815  3.308165
      ESP Fit Center  145 is at  -1.432976 -0.866214  3.103290
      ESP Fit Center  146 is at  -1.510772 -0.450042  3.103290
      ESP Fit Center  147 is at  -1.733653 -0.090076  3.103290
      ESP Fit Center  148 is at  -2.071518  0.165067  3.103290
      ESP Fit Center  149 is at  -2.478736  0.280931  3.103290
      ESP Fit Center  150 is at  -2.900311  0.241866  3.103290
      ESP Fit Center  151 is at  -3.279306  0.053149  3.103290
      ESP Fit Center  152 is at  -3.564535 -0.259733  3.103290
      ESP Fit Center  153 is at  -3.717478 -0.654523  3.103290
      ESP Fit Center  154 is at  -3.717478 -1.077904  3.103290
      ESP Fit Center  155 is at  -3.564535 -1.472694  3.103290
      ESP Fit Center  156 is at  -3.279306 -1.785577  3.103290
      ESP Fit Center  157 is at  -1.510772 -1.282385  3.103290
      ESP Fit Center  158 is at  -1.128471 -0.866214  2.829112
      ESP Fit Center  159 is at  -1.187472 -0.455852  2.829112
      ESP Fit Center  160 is at  -1.359696 -0.078736  2.829112
      ESP Fit Center  161 is at  -1.631189  0.234584  2.829112
      ESP Fit Center  162 is at  -1.979957  0.458724  2.829112
      ESP Fit Center  163 is at  -2.377744  0.575525  2.829112
      ESP Fit Center  164 is at  -2.792326  0.575525  2.829112
      ESP Fit Center  165 is at  -3.190114  0.458724  2.829112
      ESP Fit Center  166 is at  -3.538881  0.234584  2.829112
      ESP Fit Center  167 is at  -3.810375 -0.078736  2.829112
      ESP Fit Center  168 is at  -3.982598 -0.455852  2.829112
      ESP Fit Center  169 is at  -4.041599 -0.866214  2.829112
      ESP Fit Center  170 is at  -3.982598 -1.276575  2.829112
      ESP Fit Center  171 is at  -3.810375 -1.653691  2.829112
      ESP Fit Center  172 is at  -1.187472 -1.276575  2.829112
      ESP Fit Center  173 is at  -0.887625 -0.866214  2.497616
      ESP Fit Center  174 is at  -0.940952 -0.444085  2.497616
      ESP Fit Center  175 is at  -1.097583 -0.048480  2.497616
      ESP Fit Center  176 is at  -1.347677  0.295743  2.497616
      ESP Fit Center  177 is at  -1.675517  0.566957  2.497616
      ESP Fit Center  178 is at  -2.060507  0.748119  2.497616
      ESP Fit Center  179 is at  -2.478454  0.827847  2.497616
      ESP Fit Center  180 is at  -3.958268  0.131499  2.497616
      ESP Fit Center  181 is at  -4.163247 -0.241355  2.497616
      ESP Fit Center  182 is at  -4.269060 -0.653472  2.497616
      ESP Fit Center  183 is at  -4.269060 -1.078955  2.497616
      ESP Fit Center  184 is at  -4.163247 -1.491072  2.497616
      ESP Fit Center  185 is at  -3.958268 -1.863926  2.497616
      ESP Fit Center  186 is at  -0.940952 -1.288342  2.497616
      ESP Fit Center  187 is at  -0.720964 -0.866214  2.123290
      ESP Fit Center  188 is at  -0.767700 -0.451419  2.123290
      ESP Fit Center  189 is at  -0.905565 -0.057424  2.123290
      ESP Fit Center  190 is at  -1.127646  0.296016  2.123290
      ESP Fit Center  191 is at  -1.422806  0.591176  2.123290
      ESP Fit Center  192 is at  -1.776245  0.813256  2.123290
      ESP Fit Center  193 is at  -4.264505 -0.057424  2.123290
      ESP Fit Center  194 is at  -4.402370 -0.451419  2.123290
      ESP Fit Center  195 is at  -4.449106 -0.866214  2.123290
      ESP Fit Center  196 is at  -4.402370 -1.281008  2.123290
      ESP Fit Center  197 is at  -4.264505 -1.675004  2.123290
      ESP Fit Center  198 is at  -4.042424 -2.028443  2.123290
      ESP Fit Center  199 is at  -0.767700 -1.281008  2.123290
      ESP Fit Center  200 is at  -0.815932 -0.047739  1.722492
      ESP Fit Center  201 is at  -4.432260 -0.243811  1.722492
      ESP Fit Center  202 is at  -4.522871 -0.655461  1.722492
      ESP Fit Center  203 is at  -4.522871 -1.076966  1.722492
      ESP Fit Center  204 is at  -4.432260 -1.488616  1.722492
      ESP Fit Center  205 is at  -4.255275 -1.871164  1.722492
      ESP Fit Center  206 is at  -4.000191 -2.206721  1.722492
      ESP Fit Center  207 is at  -4.432260 -0.243811  1.312740
      ESP Fit Center  208 is at  -4.522871 -0.655461  1.312740
      ESP Fit Center  209 is at  -4.522871 -1.076966  1.312740
      ESP Fit Center  210 is at  -4.432260 -1.488616  1.312740
      ESP Fit Center  211 is at  -4.255275 -1.871164  1.312740
      ESP Fit Center  212 is at  -4.000191 -2.206721  1.312740
      ESP Fit Center  213 is at  -4.402370 -0.451419  0.911943
      ESP Fit Center  214 is at  -3.518990  1.454084  2.823448
      ESP Fit Center  215 is at  -3.111484  1.454084  2.780618
      ESP Fit Center  216 is at  -3.315237  1.806995  2.780618
      ESP Fit Center  217 is at  -3.722744  1.806995  2.780618
      ESP Fit Center  218 is at  -3.926497  1.454084  2.780618
      ESP Fit Center  219 is at  -3.722744  1.101172  2.780618
      ESP Fit Center  220 is at  -3.315237  1.101172  2.780618
      ESP Fit Center  221 is at  -2.721787  1.454084  2.653997
      ESP Fit Center  222 is at  -2.828592  1.852686  2.653997
      ESP Fit Center  223 is at  -3.120389  2.144483  2.653997
      ESP Fit Center  224 is at  -3.518990  2.251288  2.653997
      ESP Fit Center  225 is at  -3.917592  2.144483  2.653997
      ESP Fit Center  226 is at  -4.209389  1.852686  2.653997
      ESP Fit Center  227 is at  -4.316194  1.454084  2.653997
      ESP Fit Center  228 is at  -4.209389  1.055482  2.653997
      ESP Fit Center  229 is at  -3.917592  0.763685  2.653997
      ESP Fit Center  230 is at  -3.518990  0.656880  2.653997
      ESP Fit Center  231 is at  -3.120389  0.763685  2.653997
      ESP Fit Center  232 is at  -2.828592  1.055482  2.653997
      ESP Fit Center  233 is at  -2.366931  1.454084  2.449122
      ESP Fit Center  234 is at  -2.444727  1.870256  2.449122
      ESP Fit Center  235 is at  -2.667608  2.230221  2.449122
      ESP Fit Center  236 is at  -3.005474  2.485365  2.449122
      ESP Fit Center  237 is at  -3.412692  2.601228  2.449122
      ESP Fit Center  238 is at  -3.834266  2.562164  2.449122
      ESP Fit Center  239 is at  -4.213261  2.373447  2.449122
      ESP Fit Center  240 is at  -4.498491  2.060565  2.449122
      ESP Fit Center  241 is at  -4.651434  1.665774  2.449122
      ESP Fit Center  242 is at  -4.651434  1.242393  2.449122
      ESP Fit Center  243 is at  -4.498491  0.847603  2.449122
      ESP Fit Center  244 is at  -4.213261  0.534721  2.449122
      ESP Fit Center  245 is at  -3.834266  0.346004  2.449122
      ESP Fit Center  246 is at  -2.444727  1.037912  2.449122
      ESP Fit Center  247 is at  -2.293651  2.241562  2.174944
      ESP Fit Center  248 is at  -2.565144  2.554881  2.174944
      ESP Fit Center  249 is at  -2.913912  2.779021  2.174944
      ESP Fit Center  250 is at  -4.472837  2.554881  2.174944
      ESP Fit Center  251 is at  -4.744330  2.241562  2.174944
      ESP Fit Center  252 is at  -4.916553  1.864445  2.174944
      ESP Fit Center  253 is at  -4.975554  1.454084  2.174944
      ESP Fit Center  254 is at  -4.916553  1.043722  2.174944
      ESP Fit Center  255 is at  -4.744330  0.666606  2.174944
      ESP Fit Center  256 is at  -4.472837  0.353286  2.174944
      ESP Fit Center  257 is at  -2.121428  1.043722  2.174944
      ESP Fit Center  258 is at  -2.281632  2.616041  1.843448
      ESP Fit Center  259 is at  -4.892224  2.451796  1.843448
      ESP Fit Center  260 is at  -5.097202  2.078942  1.843448
      ESP Fit Center  261 is at  -5.203016  1.666826  1.843448
      ESP Fit Center  262 is at  -5.203016  1.241342  1.843448
      ESP Fit Center  263 is at  -5.097202  0.829226  1.843448
      ESP Fit Center  264 is at  -4.892224  0.456371  1.843448
      ESP Fit Center  265 is at  -4.600960  0.146207  1.843448
      ESP Fit Center  266 is at  -5.198460  2.262874  1.469122
      ESP Fit Center  267 is at  -5.336325  1.868879  1.469122
      ESP Fit Center  268 is at  -5.383061  1.454084  1.469122
      ESP Fit Center  269 is at  -5.336325  1.039289  1.469122
      ESP Fit Center  270 is at  -5.198460  0.645294  1.469122
      ESP Fit Center  271 is at  -4.976380  0.291855  1.469122
      ESP Fit Center  272 is at  -4.681220 -0.003305  1.469122
      ESP Fit Center  273 is at  -5.366216  2.076486  1.068324
      ESP Fit Center  274 is at  -5.456827  1.664836  1.068324
      ESP Fit Center  275 is at  -5.456827  1.243331  1.068324
      ESP Fit Center  276 is at  -5.366216  0.831681  1.068324
      ESP Fit Center  277 is at  -5.189230  0.449134  1.068324
      ESP Fit Center  278 is at  -4.934147  0.113577  1.068324
      ESP Fit Center  279 is at  -4.612892 -0.159300  1.068324
      ESP Fit Center  280 is at  -5.366216  2.076486  0.658573
      ESP Fit Center  281 is at  -5.456827  1.664836  0.658573
      ESP Fit Center  282 is at  -5.456827  1.243331  0.658573
      ESP Fit Center  283 is at  -5.366216  0.831681  0.658573
      ESP Fit Center  284 is at  -5.189230  0.449134  0.658573
      ESP Fit Center  285 is at  -4.934147  0.113577  0.658573
      ESP Fit Center  286 is at  -4.612892 -0.159300  0.658573
      ESP Fit Center  287 is at  -5.336325  1.868879  0.257775
      ESP Fit Center  288 is at  -5.383061  1.454084  0.257775
      ESP Fit Center  289 is at  -5.336325  1.039289  0.257775
      ESP Fit Center  290 is at  -5.198460  0.645294  0.257775
      ESP Fit Center  291 is at  -4.976380  0.291855  0.257775
      ESP Fit Center  292 is at  -5.097202  2.078942 -0.116552
      ESP Fit Center  293 is at  -5.203016  1.666826 -0.116552
      ESP Fit Center  294 is at  -5.203016  1.241342 -0.116552
      ESP Fit Center  295 is at  -5.097202  0.829226 -0.116552
      ESP Fit Center  296 is at  -4.892224  0.456371 -0.116552
      ESP Fit Center  297 is at  -4.916553  1.864445 -0.448048
      ESP Fit Center  298 is at  -4.975554  1.454084 -0.448048
      ESP Fit Center  299 is at  -4.916553  1.043722 -0.448048
      ESP Fit Center  300 is at  -4.744330  0.666606 -0.448048
      ESP Fit Center  301 is at  -4.498491  2.060565 -0.722225
      ESP Fit Center  302 is at  -4.651434  1.665774 -0.722225
      ESP Fit Center  303 is at   0.462707  2.773544  0.396710
      ESP Fit Center  304 is at  -0.299992  3.549357  0.764995
      ESP Fit Center  305 is at   0.246189  3.183582  0.490818
      ESP Fit Center  306 is at   0.073965  3.560698  0.490818
      ESP Fit Center  307 is at  -0.197528  3.874018  0.490818
      ESP Fit Center  308 is at   0.492708  3.195349  0.159322
      ESP Fit Center  309 is at   0.336077  3.590954  0.159322
      ESP Fit Center  310 is at   0.085984  3.935177  0.159322
      ESP Fit Center  311 is at  -0.241857  4.206391  0.159322
      ESP Fit Center  312 is at   0.665960  3.188015 -0.215005
      ESP Fit Center  313 is at   0.528096  3.582010 -0.215005
      ESP Fit Center  314 is at   0.306015  3.935449 -0.215005
      ESP Fit Center  315 is at   0.010855  4.230609 -0.215005
      ESP Fit Center  316 is at  -0.342584  4.452690 -0.215005
      ESP Fit Center  317 is at   0.752316  3.192254 -0.615802
      ESP Fit Center  318 is at   0.617729  3.591694 -0.615802
      ESP Fit Center  319 is at   0.400420  3.952864 -0.615802
      ESP Fit Center  320 is at   0.110552  4.258874 -0.615802
      ESP Fit Center  321 is at  -0.238323  4.495417 -0.615802
      ESP Fit Center  322 is at   0.752316  3.192254 -1.025554
      ESP Fit Center  323 is at   0.617729  3.591694 -1.025554
      ESP Fit Center  324 is at   0.400420  3.952864 -1.025554
      ESP Fit Center  325 is at   0.110552  4.258874 -1.025554
      ESP Fit Center  326 is at  -0.238323  4.495417 -1.025554
      ESP Fit Center  327 is at  -0.629891  4.651432 -1.025554
      ESP Fit Center  328 is at   0.712697  2.773220 -1.426351
      ESP Fit Center  329 is at   0.665960  3.188015 -1.426351
      ESP Fit Center  330 is at   0.528096  3.582010 -1.426351
      ESP Fit Center  331 is at   0.306015  3.935449 -1.426351
      ESP Fit Center  332 is at   0.010855  4.230609 -1.426351
      ESP Fit Center  333 is at  -0.342584  4.452690 -1.426351
      ESP Fit Center  334 is at  -0.736579  4.590555 -1.426351
      ESP Fit Center  335 is at  -1.151374  4.637291 -1.426351
      ESP Fit Center  336 is at  -3.015445  2.773220 -1.426351
      ESP Fit Center  337 is at   0.546036  2.773220 -1.800678
      ESP Fit Center  338 is at   0.492708  3.195349 -1.800678
      ESP Fit Center  339 is at   0.336077  3.590954 -1.800678
      ESP Fit Center  340 is at   0.085984  3.935177 -1.800678
      ESP Fit Center  341 is at  -0.241857  4.206391 -1.800678
      ESP Fit Center  342 is at  -0.626846  4.387553 -1.800678
      ESP Fit Center  343 is at  -1.044793  4.467280 -1.800678
      ESP Fit Center  344 is at  -1.469437  4.440564 -1.800678
      ESP Fit Center  345 is at  -2.729586  3.398078 -1.800678
      ESP Fit Center  346 is at  -2.835399  2.985962 -1.800678
[...]
 6365 Fit      -0.245021
 6366 Fit      -0.241405
 6367 Fit      -0.238736
 6368 Fit      -0.236936
 6369 Fit      -0.235988
 6370 Fit      -0.235929
 6371 Fit      -0.236830
 6372 Fit      -0.238785
 6373 Fit      -0.241850
 6374 Fit      -0.245915
 6375 Fit      -0.256490
 6376 Fit      -0.250019
 6377 Fit      -0.245041
 6378 Fit      -0.241213
 6379 Fit      -0.238345
 6380 Fit      -0.236346
 6381 Fit      -0.235202
 6382 Fit      -0.234964
 6383 Fit      -0.235755
 6384 Fit      -0.237774
 6385 Fit      -0.257030
 6386 Fit      -0.250434
 6387 Fit      -0.245334
 6388 Fit      -0.241374
 6389 Fit      -0.238354
 6390 Fit      -0.236176
 6391 Fit      -0.234819
 6392 Fit      -0.234341
 6393 Fit      -0.234891
 6394 Fit      -0.257156
 6395 Fit      -0.250580
 6396 Fit      -0.245469
 6397 Fit      -0.241474
 6398 Fit      -0.238394
 6399 Fit      -0.236133
 6400 Fit      -0.234670
 6401 Fit      -0.234073
 6402 Fit      -0.234532
 6403 Fit      -0.256929
 6404 Fit      -0.250502
 6405 Fit      -0.245477
 6406 Fit      -0.241528
 6407 Fit      -0.238470
 6408 Fit      -0.236208
 6409 Fit      -0.234732
 6410 Fit      -0.234132
 6411 Fit      -0.250704
 6412 Fit      -0.245859
 6413 Fit      -0.242019
 6414 Fit      -0.239016
 6415 Fit      -0.236767
 6416 Fit      -0.235263
 6417 Fit      -0.250498
 6418 Fit      -0.245856
 6419 Fit      -0.242188
 6420 Fit      -0.239351
 6421 Fit      -0.237279
 6422 Fit      -0.250441
 6423 Fit      -0.246032
 6424 Fit      -0.242619
 6425 Fit      -0.240094
 6426 Fit      -0.251184
 6427 Fit      -0.247103
 6428 Fit      -0.252589
 6429 Fit      -0.183699
 6430 Fit      -0.185635
 6431 Fit      -0.177833
 6432 Fit      -0.175625
 6433 Fit      -0.182012
 6434 Fit      -0.170914
 6435 Fit      -0.169613
 6436 Fit      -0.172639
 6437 Fit      -0.180655
 6438 Fit      -0.165362
 6439 Fit      -0.166616
 6440 Fit      -0.171314
 6441 Fit      -0.179684
 6442 Fit      -0.163156
 6443 Fit      -0.162475
 6444 Fit      -0.164433
 6445 Fit      -0.169353
 6446 Fit      -0.177455
 6447 Fit      -0.188797
 6448 Fit      -0.161359
 6449 Fit      -0.160663
 6450 Fit      -0.162410
 6451 Fit      -0.166833
 6452 Fit      -0.174158
 6453 Fit      -0.184584
 6454 Fit      -0.159939
 6455 Fit      -0.161438
 6456 Fit      -0.165311
 6457 Fit      -0.171749
 6458 Fit      -0.180970
 6459 Fit      -0.193178
 6460 Fit      -0.160518
 6461 Fit      -0.160614
 6462 Fit      -0.162978
 6463 Fit      -0.167755
 6464 Fit      -0.175147
 6465 Fit      -0.185391
 6466 Fit      -0.198722
 6467 Fit      -0.161779
 6468 Fit      -0.162690
 6469 Fit      -0.165830
 6470 Fit      -0.171338
 6471 Fit      -0.179400
 6472 Fit      -0.190240
 6473 Fit      -0.165504
 6474 Fit      -0.168836
 6475 Fit      -0.174497
 6476 Fit      -0.182646
 6477 Fit      -0.193451
 6478 Fit      -0.168546
 6479 Fit      -0.171048
 6480 Fit      -0.175978
 6481 Fit      -0.183447
 6482 Fit      -0.193567
 6483 Fit      -0.206366
 6484 Fit      -0.177694
 6485 Fit      -0.183946
 6486 Fit      -0.192943
 6487 Fit      -0.204653
 6488 Fit      -0.186154
 6489 Fit      -0.193797
 6490 Fit      -0.204255
 6491 Fit      -0.202616
 6492 Fit      -0.156883
 6493 Fit      -0.152190
 6494 Fit      -0.148644
 6495 Fit      -0.146271
 6496 Fit      -0.145081
 6497 Fit      -0.145106
 6498 Fit      -0.146423
 6499 Fit      -0.149176
 6500 Fit      -0.157995
 6501 Fit      -0.152868
 6502 Fit      -0.148755
 6503 Fit      -0.145751
 6504 Fit      -0.143887
 6505 Fit      -0.143190
 6506 Fit      -0.143703
 6507 Fit      -0.145512
 6508 Fit      -0.148757
 6509 Fit      -0.153647
 6510 Fit      -0.160477
 6511 Fit      -0.153134
 6512 Fit      -0.148738
 6513 Fit      -0.145455
 6514 Fit      -0.143334
 6515 Fit      -0.142407
 6516 Fit      -0.142712
 6517 Fit      -0.144316
 6518 Fit      -0.147323
 6519 Fit      -0.151880
 6520 Fit      -0.158170
 6521 Fit      -0.154425
 6522 Fit      -0.149734
 6523 Fit      -0.146172
 6524 Fit      -0.143794
 6525 Fit      -0.142632
 6526 Fit      -0.142718
 6527 Fit      -0.144100
 6528 Fit      -0.146849
 6529 Fit      -0.151052
 6530 Fit      -0.156798
 6531 Fit      -0.164125
 6532 Fit      -0.159526
 6533 Fit      -0.153644
 6534 Fit      -0.149073
 6535 Fit      -0.145872
 6536 Fit      -0.144081
 6537 Fit      -0.143730
 6538 Fit      -0.144858
 6539 Fit      -0.147512
 6540 Fit      -0.151736
 6541 Fit      -0.157542
 6542 Fit      -0.164848
 6543 Fit      -0.173408
 6544 Fit      -0.167192
 6545 Fit      -0.159683
 6546 Fit      -0.153780
 6547 Fit      -0.149497
 6548 Fit      -0.146873
 6549 Fit      -0.145945
 6550 Fit      -0.146741
 6551 Fit      -0.149281
 6552 Fit      -0.153560
 6553 Fit      -0.159501
 6554 Fit      -0.166916
 6555 Fit      -0.175512
 6556 Fit      -0.185078
 6557 Fit      -0.175849
 6558 Fit      -0.166316
 6559 Fit      -0.158843
 6560 Fit      -0.153484
 6561 Fit      -0.150323
 6562 Fit      -0.149424
 6563 Fit      -0.150812
 6564 Fit      -0.154444
 6565 Fit      -0.160175
 6566 Fit      -0.167719
 6567 Fit      -0.176727
 6568 Fit      -0.187004
 6569 Fit      -0.173404
 6570 Fit      -0.163917
 6571 Fit      -0.157380
 6572 Fit      -0.154402
 6573 Fit      -0.155203
 6574 Fit      -0.159646
 6575 Fit      -0.167171
 6576 Fit      -0.176805
 6577 Fit      -0.179450
 6578 Fit      -0.171072
 6579 Fit      -0.162540
 6580 Fit      -0.161189
 6581 Fit      -0.167718
 6582 Fit      -0.177199
 6583 Fit      -0.169098
 6584 Fit      -0.174531
 6585 Fit      -0.183042
 6586 Fit      -0.178537
 6587 Fit      -0.170609
 6588 Fit      -0.167590
 6589 Fit      -0.172093
 6590 Fit      -0.179741
 6591 Fit      -0.193204
 6592 Fit      -0.176003
 6593 Fit      -0.167732
 6594 Fit      -0.162785
 6595 Fit      -0.162089
 6596 Fit      -0.165254
 6597 Fit      -0.171129
 6598 Fit      -0.178489
 6599 Fit      -0.186409
 6600 Fit      -0.192317
 6601 Fit      -0.174149
 6602 Fit      -0.165634
 6603 Fit      -0.160044
 6604 Fit      -0.157518
 6605 Fit      -0.157882
 6606 Fit      -0.160806
 6607 Fit      -0.165736
 6608 Fit      -0.171847
 6609 Fit      -0.178440
 6610 Fit      -0.169747
 6611 Fit      -0.161741
 6612 Fit      -0.156634
 6613 Fit      -0.154145
 6614 Fit      -0.154041
 6615 Fit      -0.156144
 6616 Fit      -0.160249
 6617 Fit      -0.165973
 6618 Fit      -0.172318
 6619 Fit      -0.162854
 6620 Fit      -0.156507
 6621 Fit      -0.152743
 6622 Fit      -0.151225
 6623 Fit      -0.151773
 6624 Fit      -0.154310
 6625 Fit      -0.158802
 6626 Fit      -0.165131
 6627 Fit      -0.175088
 6628 Fit      -0.164570
 6629 Fit      -0.157342
 6630 Fit      -0.152654
 6631 Fit      -0.150075
 6632 Fit      -0.149372
 6633 Fit      -0.150453
 6634 Fit      -0.153342
 6635 Fit      -0.158148
 6636 Fit      -0.170238
 6637 Fit      -0.160969
 6638 Fit      -0.154682
 6639 Fit      -0.150709
 6640 Fit      -0.148682
 6641 Fit      -0.148426
 6642 Fit      -0.149910
 6643 Fit      -0.153242
 6644 Fit      -0.158676
 6645 Fit      -0.165656
 6646 Fit      -0.157997
 6647 Fit      -0.152805
 6648 Fit      -0.149603
 6649 Fit      -0.148135
 6650 Fit      -0.148296
 6651 Fit      -0.150116
 6652 Fit      -0.153771
 6653 Fit      -0.167580
 6654 Fit      -0.159721
 6655 Fit      -0.154229
 6656 Fit      -0.150665
 6657 Fit      -0.148778
 6658 Fit      -0.148453
 6659 Fit      -0.149700
 6660 Fit      -0.172933
 6661 Fit      -0.164033
 6662 Fit      -0.157574
 6663 Fit      -0.153146
 6664 Fit      -0.150487
 6665 Fit      -0.149454
 6666 Fit      -0.173502
 6667 Fit      -0.171963
 6668 Fit      -0.171651
 6669 Fit      -0.190329
 6670 Fit      -0.182382
 6671 Fit      -0.176221
 6672 Fit      -0.171576
 6673 Fit      -0.168274
 6674 Fit      -0.166200
 6675 Fit      -0.165288
 6676 Fit      -0.165512
 6677 Fit      -0.197863
 6678 Fit      -0.187131
 6679 Fit      -0.178882
 6680 Fit      -0.172534
 6681 Fit      -0.167743
 6682 Fit      -0.164293
 6683 Fit      -0.162048
 6684 Fit      -0.160925
 6685 Fit      -0.160883
 6686 Fit      -0.191189
 6687 Fit      -0.180948
 6688 Fit      -0.173195
 6689 Fit      -0.167353
 6690 Fit      -0.163078
 6691 Fit      -0.160159
 6692 Fit      -0.158465
 6693 Fit      -0.157919
 6694 Fit      -0.158470
 6695 Fit      -0.195054
 6696 Fit      -0.182991
 6697 Fit      -0.174010
 6698 Fit      -0.167321
 6699 Fit      -0.162459
 6700 Fit      -0.159141
 6701 Fit      -0.157194
 6702 Fit      -0.156513
 6703 Fit      -0.157026
 6704 Fit      -0.186453
 6705 Fit      -0.176340
 6706 Fit      -0.168812
 6707 Fit      -0.163334
 6708 Fit      -0.159575
 6709 Fit      -0.157328
 6710 Fit      -0.156467
 6711 Fit      -0.156913
 6712 Fit      -0.185261
 6713 Fit      -0.175159
 6714 Fit      -0.167746
 6715 Fit      -0.162568
 6716 Fit      -0.159326
 6717 Fit      -0.157834
 6718 Fit      -0.157989
 6719 Fit      -0.159751
 6720 Fit      -0.184373
 6721 Fit      -0.174728
 6722 Fit      -0.167726
 6723 Fit      -0.163118
 6724 Fit      -0.160704
 6725 Fit      -0.160364
 6726 Fit      -0.162075
 6727 Fit      -0.165955
 6728 Fit      -0.192464
 6729 Fit      -0.181652
 6730 Fit      -0.173122
 6731 Fit      -0.167388
 6732 Fit      -0.164499
 6733 Fit      -0.164427
 6734 Fit      -0.167229
 6735 Fit      -0.173147
 6736 Fit      -0.187478
 6737 Fit      -0.178043
 6738 Fit      -0.171542
 6739 Fit      -0.169296
 6740 Fit      -0.171684
 6741 Fit      -0.178672
 6742 Fit      -0.184450
 6743 Fit      -0.176914
 6744 Fit      -0.177106
 6745 Fit      -0.176521
 6746 Fit      -0.180611
 6747 Fit      -0.176454
 6748 Fit      -0.173852
 6749 Fit      -0.174567
 6750 Fit      -0.178137
 6751 Fit      -0.181554
 6752 Fit      -0.187021
 6753 Fit      -0.182396
 6754 Fit      -0.177876
 6755 Fit      -0.174811
 6756 Fit      -0.173426
 6757 Fit      -0.173397
 6758 Fit      -0.174613
 6759 Fit      -0.177321
 6760 Fit      -0.181417
 6761 Fit      -0.185877
 6762 Fit      -0.189156
 6763 Fit      -0.189708
 6764 Fit      -0.195986
 6765 Fit      -0.190700
 6766 Fit      -0.185279
 6767 Fit      -0.180764
 6768 Fit      -0.177652
 6769 Fit      -0.178625
 6770 Fit      -0.182034
 6771 Fit      -0.186568
 6772 Fit      -0.191495
 6773 Fit      -0.196073
 6774 Fit      -0.199624
 6775 Fit      -0.201139
 6776 Fit      -0.199833
 6777 Fit      -0.207788
 6778 Fit      -0.201349
 6779 Fit      -0.194748
 6780 Fit      -0.188928
 6781 Fit      -0.184474
 6782 Fit      -0.186935
 6783 Fit      -0.192066
 6784 Fit      -0.197771
 6785 Fit      -0.203214
 6786 Fit      -0.208204
 6787 Fit      -0.212691
 6788 Fit      -0.215699
 6789 Fit      -0.215890
 6790 Fit      -0.212991
 6791 Fit      -0.222737
 6792 Fit      -0.214688
 6793 Fit      -0.206473
 6794 Fit      -0.199079
 6795 Fit      -0.193195
 6796 Fit      -0.234563
 6797 Fit      -0.229683
 6798 Fit      -0.231315
 6799 Fit      -0.221223
 6800 Fit      -0.211972
 6801 Fit      -0.204416
 6802 Fit      -0.237710
 6803 Fit      -0.225787
 6804 Fit      -0.216214
 6805 Fit      -0.241598
 6806 Fit      -0.233930
 6807 Fit      -0.229337
 6808 Fit      -0.231299
 6809 Fit      -0.224356
 6810 Fit      -0.227116
 6811 Fit      -0.220509
 6812 Fit      -0.232209
 6813 Fit      -0.222784
 6814 Fit      -0.217093
 6815 Fit      -0.236744
 6816 Fit      -0.225579
 6817 Fit      -0.218105
 6818 Fit      -0.241450
 6819 Fit      -0.229156
 6820 Fit      -0.220361
 6821 Fit      -0.215009
 6822 Fit      -0.246872
 6823 Fit      -0.234146
 6824 Fit      -0.224393
 6825 Fit      -0.217826
 6826 Fit      -0.252381
 6827 Fit      -0.239110
 6828 Fit      -0.228542
 6829 Fit      -0.245770
 6830 Fit      -0.234503
 6831 Fit      -0.232689
 6832 Fit      -0.192844
 6833 Fit      -0.186606
 6834 Fit      -0.182317
 6835 Fit      -0.180239
 6836 Fit      -0.180509
 6837 Fit      -0.183183
 6838 Fit      -0.220093
 6839 Fit      -0.216779
 6840 Fit      -0.213756
 6841 Fit      -0.211008
 6842 Fit      -0.207975
 6843 Fit      -0.204015
 6844 Fit      -0.198918
 6845 Fit      -0.193083
 6846 Fit      -0.187274
 6847 Fit      -0.182249
 6848 Fit      -0.178566
 6849 Fit      -0.176561
 6850 Fit      -0.176404
 6851 Fit      -0.178114
 6852 Fit      -0.181532
 6853 Fit      -0.208037
 6854 Fit      -0.205967
 6855 Fit      -0.203273
 6856 Fit      -0.200374
 6857 Fit      -0.197240
 6858 Fit      -0.193589
 6859 Fit      -0.189285
 6860 Fit      -0.184582
 6861 Fit      -0.180055
 6862 Fit      -0.176336
 6863 Fit      -0.173920
 6864 Fit      -0.173094
 6865 Fit      -0.173930
 6866 Fit      -0.176260
 6867 Fit      -0.179630
 6868 Fit      -0.183299
 6869 Fit      -0.196338
 6870 Fit      -0.194719
 6871 Fit      -0.192325
 6872 Fit      -0.189448
 6873 Fit      -0.186140
 6874 Fit      -0.182421
 6875 Fit      -0.178535
 6876 Fit      -0.174976
 6877 Fit      -0.172298
 6878 Fit      -0.170925
 6879 Fit      -0.171033
 6880 Fit      -0.172509
 6881 Fit      -0.174934
 6882 Fit      -0.177661
 6883 Fit      -0.180071
 6884 Fit      -0.181915
 6885 Fit      -0.183448
 6886 Fit      -0.196737
 6887 Fit      -0.187256
 6888 Fit      -0.185780
 6889 Fit      -0.183367
 6890 Fit      -0.180336
 6891 Fit      -0.176954
 6892 Fit      -0.173645
 6893 Fit      -0.171006
 6894 Fit      -0.169590
 6895 Fit      -0.169645
 6896 Fit      -0.170997
 6897 Fit      -0.173098
 6898 Fit      -0.175319
 6899 Fit      -0.177352
 6900 Fit      -0.179350
 6901 Fit      -0.187434
 6902 Fit      -0.180349
 6903 Fit      -0.178713
 6904 Fit      -0.175903
 6905 Fit      -0.172713
 6906 Fit      -0.170144
 6907 Fit      -0.169114
 6908 Fit      -0.169850
 6909 Fit      -0.171746
 6910 Fit      -0.174019
 6911 Fit      -0.176385
 6912 Fit      -0.178697
 6913 Fit      -0.180293
 6914 Fit      -0.175321
 6915 Fit      -0.173164
 6916 Fit      -0.170463
 6917 Fit      -0.170169
 6918 Fit      -0.172253
 6919 Fit      -0.174696
 6920 Fit      -0.171970
 6921 Fit      -0.232059
 6922 Fit      -0.237735
 6923 Fit      -0.219817
 6924 Fit      -0.221469
 6925 Fit      -0.225929
 6926 Fit      -0.233418
 6927 Fit      -0.244294
 6928 Fit      -0.214870
 6929 Fit      -0.212437
 6930 Fit      -0.212363
 6931 Fit      -0.214718
 6932 Fit      -0.219622
 6933 Fit      -0.227294
 6934 Fit      -0.238091
 6935 Fit      -0.212008
 6936 Fit      -0.208092
 6937 Fit      -0.206505
 6938 Fit      -0.207159
 6939 Fit      -0.210041
 6940 Fit      -0.215234
 6941 Fit      -0.222930
 6942 Fit      -0.233461
 6943 Fit      -0.214313
 6944 Fit      -0.207727
 6945 Fit      -0.203908
 6946 Fit      -0.202466
 6947 Fit      -0.203193
 6948 Fit      -0.206016
 6949 Fit      -0.210974
 6950 Fit      -0.218219
 6951 Fit      -0.228030
 6952 Fit      -0.208386
 6953 Fit      -0.202945
 6954 Fit      -0.200258
 6955 Fit      -0.199930
 6956 Fit      -0.201768
 6957 Fit      -0.205725
 6958 Fit      -0.211879
 6959 Fit      -0.205464
 6960 Fit      -0.200598
 6961 Fit      -0.198515
 6962 Fit      -0.198835
 6963 Fit      -0.201383
 6964 Fit      -0.194096
 6965 Fit      -0.190211
 6966 Fit      -0.188020
 6967 Fit      -0.187394
 6968 Fit      -0.188244
 6969 Fit      -0.190526
 6970 Fit      -0.194237
 6971 Fit      -0.199400
 6972 Fit      -0.206041
 6973 Fit      -0.214157
 6974 Fit      -0.195720
 6975 Fit      -0.190355
 6976 Fit      -0.186226
 6977 Fit      -0.183481
 6978 Fit      -0.182138
 6979 Fit      -0.182167
 6980 Fit      -0.183538
 6981 Fit      -0.186226
 6982 Fit      -0.190218
 6983 Fit      -0.195487
 6984 Fit      -0.201967
 6985 Fit      -0.209513
 6986 Fit      -0.217845
 6987 Fit      -0.217701
 6988 Fit      -0.190969
 6989 Fit      -0.186726
 6990 Fit      -0.182953
 6991 Fit      -0.180067
 6992 Fit      -0.178279
 6993 Fit      -0.177677
 6994 Fit      -0.178282
 6995 Fit      -0.180086
 6996 Fit      -0.183063
 6997 Fit      -0.187159
 6998 Fit      -0.192278
 6999 Fit      -0.198244
 7000 Fit      -0.204773
 7001 Fit      -0.211445
 7002 Fit      -0.204400
 7003 Fit      -0.208453
 7004 Fit      -0.210912
 7005 Fit      -0.211480
 7006 Fit      -0.185861
 7007 Fit      -0.182730
 7008 Fit      -0.179558
 7009 Fit      -0.176894
 7010 Fit      -0.175116
 7011 Fit      -0.174438
 7012 Fit      -0.174955
 7013 Fit      -0.176682
 7014 Fit      -0.179578
 7015 Fit      -0.183537
 7016 Fit      -0.188369
 7017 Fit      -0.193769
 7018 Fit      -0.199299
 7019 Fit      -0.194120
 7020 Fit      -0.197323
 7021 Fit      -0.199052
 7022 Fit      -0.199128
 7023 Fit      -0.197725
 7024 Fit      -0.195262
 7025 Fit      -0.181781
 7026 Fit      -0.179529
 7027 Fit      -0.177008
 7028 Fit      -0.174664
 7029 Fit      -0.172963
 7030 Fit      -0.172242
 7031 Fit      -0.172685
 7032 Fit      -0.174341
 7033 Fit      -0.177143
 7034 Fit      -0.180909
 7035 Fit      -0.185320
 7036 Fit      -0.189917
 7037 Fit      -0.186283
 7038 Fit      -0.188878
 7039 Fit      -0.189934
 7040 Fit      -0.189386
 7041 Fit      -0.187592
 7042 Fit      -0.185150
 7043 Fit      -0.182681
 7044 Fit      -0.180517
 7045 Fit      -0.178529
 7046 Fit      -0.176445
 7047 Fit      -0.174269
 7048 Fit      -0.172360
 7049 Fit      -0.171216
 7050 Fit      -0.171229
 7051 Fit      -0.172567
 7052 Fit      -0.175161
 7053 Fit      -0.178702
 7054 Fit      -0.182648
 7055 Fit      -0.180496
 7056 Fit      -0.182578
 7057 Fit      -0.182686
 7058 Fit      -0.181119
 7059 Fit      -0.178773
 7060 Fit      -0.176358
 7061 Fit      -0.174049
 7062 Fit      -0.172047
 7063 Fit      -0.170979
 7064 Fit      -0.171497
 7065 Fit      -0.173735
 7066 Fit      -0.177122
 7067 Fit      -0.176497
 7068 Fit      -0.177666
 7069 Fit      -0.175918
 7070 Fit      -0.173308
 7071 Fit      -0.171929
 7072 Fit      -0.173397
 7073 Fit      -0.174126
 -----------------------------------------------------------------
 Leave Link  602 at Fri Mar 31 08:35:56 2017, MaxMem=    33554432 cpu:         1.4

 Test job not archived.
 1\1\GINC-NID02215\FOpt\RHF\6-31G(d)\C6H11O9P1(2-)\NMIH\31-Mar-2017\0\\
 #HF/6-31G* SCF=tight Test Pop=MK iop(6/33=2) iop(6/42=6) opt\\F6P.pdb\
 \-2,1\O,2.2264666521,0.7741227553,3.7240133848\C,1.1154476608,-0.08178
 83795,3.6886365131\C,0.4461222757,-0.0894024637,2.3227402719\O,0.32320
 65911,1.2505901638,1.9648512896\C,-0.9069155465,-0.8086707409,2.275178
 2624\O,-1.9326866556,-0.1239488863,2.9396896721\C,-1.0617608408,-0.915
 4447882,0.7682088488\O,-2.0023827178,-1.8178162117,0.2855963144\C,0.38
 01050257,-1.2070092239,0.3119905842\O,1.2131051904,-0.8231056468,1.420
 218497\C,0.8723181878,-0.4703438764,-0.9512066325\O,-0.0977142474,-0.2
 853199797,-1.9086858072\P,-1.2100251584,1.0160514653,-1.7636483942\O,-
 0.6681748794,1.7648099277,-0.5410955041\O,-1.1239638095,1.7481541034,-
 3.0569544048\O,-2.5038452985,0.2791481865,-1.4766498991\H,2.0358908264
 ,1.4486706203,3.0797376082\H,1.4497082396,-1.0834845914,3.9319529281\H
 ,0.3768105266,0.2281360563,4.4246482602\H,0.0081804958,1.4068752281,1.
 0432734003\H,-0.8245071294,-1.7820382342,2.75022499\H,-2.0524384104,0.
 7001778091,2.4825650647\H,-1.3509347186,0.0621693058,0.4431365803\H,-2
 .3785540933,-1.3289691497,-0.4627841621\H,0.4804015769,-2.282106881,0.
 1935832995\H,1.3058892442,0.467239446,-0.6317233225\H,1.6772510126,-1.
 0666960142,-1.3894976433\\Version=ES64L-G09RevD.01\State=1-A\HF=-1248.
 1067835\RMSD=5.290e-09\RMSF=2.281e-05\Dipole=1.9249952,-1.9802278,4.42
 06781\Quadrupole=8.0947987,15.7815771,-23.8763758,-0.7857018,-18.39565
 39,13.5496703\PG=C01 [X(C6H11O9P1)]\\@


 The earth never tires,
 The earth is rude, silent, incomprehensible at first,
 Nature is rude and incomprehensible at first,
 Be not discouraged, keep on,
 There are divine things well envelop'd,
 I swear to you there are divine things more beautiful than words can tell.
                                 -- Walt Whitman
 Job cpu time:       0 days  1 hours 31 minutes 32.6 seconds.
 File lengths (MBytes):  RWF=     46 Int=      0 D2E=      0 Chk=      6 Scr=      1
 Normal termination of Gaussian 09 at Fri Mar 31 08:35:57 2017.
