 Entering Gaussian System, Link 0=g09
 Input=2PG.gau
 Output=2PG.log
 Initial command:
 /usr/common/usg/g09/c1/g09/l1.exe /scratch/scratchdirs/nmih/Gau-27548.inp -scrdir=/scratch/scratchdirs/nmih/
 Entering Link 1 = /usr/common/usg/g09/c1/g09/l1.exe PID=     27549.
  
 Copyright (c) 1988,1990,1992,1993,1995,1998,2003,2009,2011,
            Gaussian, Inc.  All Rights Reserved.
  
 This is part of the Gaussian(R) 09 program.  It is based on
 the Gaussian(R) 03 system (copyright 2003, Gaussian, Inc.),
 the Gaussian(R) 98 system (copyright 1998, Gaussian, Inc.),
 the Gaussian(R) 94 system (copyright 1995, Gaussian, Inc.),
 the Gaussian 92(TM) system (copyright 1992, Gaussian, Inc.),
 the Gaussian 90(TM) system (copyright 1990, Gaussian, Inc.),
 the Gaussian 88(TM) system (copyright 1988, Gaussian, Inc.),
 the Gaussian 86(TM) system (copyright 1986, Carnegie Mellon
 University), and the Gaussian 82(TM) system (copyright 1983,
 Carnegie Mellon University). Gaussian is a federally registered
 trademark of Gaussian, Inc.
  
 This software contains proprietary and confidential information,
 including trade secrets, belonging to Gaussian, Inc.
  
 This software is provided under written license and may be
 used, copied, transmitted, or stored only in accord with that
 written license.
  
 The following legend is applicable only to US Government
 contracts under FAR:
  
                    RESTRICTED RIGHTS LEGEND
  
 Use, reproduction and disclosure by the US Government is
 subject to restrictions as set forth in subparagraphs (a)
 and (c) of the Commercial Computer Software - Restricted
 Rights clause in FAR 52.227-19.
  
 Gaussian, Inc.
 340 Quinnipiac St., Bldg. 40, Wallingford CT 06492
  
  
 ---------------------------------------------------------------
 Warning -- This program may not be used in any manner that
 competes with the business of Gaussian, Inc. or will provide
 assistance to any competitor of Gaussian, Inc.  The licensee
 of this program is prohibited from giving any competitor of
 Gaussian, Inc. access to this program.  By using this program,
 the user acknowledges that Gaussian, Inc. is engaged in the
 business of creating and licensing software in the field of
 computational chemistry and represents and warrants to the
 licensee that it is not a competitor of Gaussian, Inc. and that
 it will not use this program in any manner prohibited above.
 ---------------------------------------------------------------
  

 Cite this work as:
 Gaussian 09, Revision C.01,
 M. J. Frisch, G. W. Trucks, H. B. Schlegel, G. E. Scuseria, 
 M. A. Robb, J. R. Cheeseman, G. Scalmani, V. Barone, B. Mennucci, 
 G. A. Petersson, H. Nakatsuji, M. Caricato, X. Li, H. P. Hratchian, 
 A. F. Izmaylov, J. Bloino, G. Zheng, J. L. Sonnenberg, M. Hada, 
 M. Ehara, K. Toyota, R. Fukuda, J. Hasegawa, M. Ishida, T. Nakajima, 
 Y. Honda, O. Kitao, H. Nakai, T. Vreven, J. A. Montgomery, Jr., 
 J. E. Peralta, F. Ogliaro, M. Bearpark, J. J. Heyd, E. Brothers, 
 K. N. Kudin, V. N. Staroverov, T. Keith, R. Kobayashi, J. Normand, 
 K. Raghavachari, A. Rendell, J. C. Burant, S. S. Iyengar, J. Tomasi, 
 M. Cossi, N. Rega, J. M. Millam, M. Klene, J. E. Knox, J. B. Cross, 
 V. Bakken, C. Adamo, J. Jaramillo, R. Gomperts, R. E. Stratmann, 
 O. Yazyev, A. J. Austin, R. Cammi, C. Pomelli, J. W. Ochterski, 
 R. L. Martin, K. Morokuma, V. G. Zakrzewski, G. A. Voth, 
 P. Salvador, J. J. Dannenberg, S. Dapprich, A. D. Daniels, 
 O. Farkas, J. B. Foresman, J. V. Ortiz, J. Cioslowski, 
 and D. J. Fox, Gaussian, Inc., Wallingford CT, 2010.
 
 ******************************************
 Gaussian 09:  AM64L-G09RevC.01 23-Sep-2011
                16-Sep-2015 
 ******************************************
 %chk=2PG_idealpdb.chk
 ----------------------------------------------
 #HF/6-31G* Test Pop=MK iop(6/33=2) iop(6/42=6)
 ----------------------------------------------
 1/38=1/1;
 2/12=2,17=6,18=5,40=1/2;
 3/5=1,6=6,7=1,11=9,16=1,25=1,30=1/1,2,3;
 4//1;
 5/5=2,38=5/2;
 6/7=2,8=2,9=2,10=2,15=8,20=1,28=1,33=2,42=6/1,2;
 99/5=1,9=1/99;
 --------
 15 atoms
 --------
 Charge = -3 Multiplicity = 1
 Symbolic Z-Matrix:
 C                    -0.731     0.054    -1.975 
 C                     0.297    -0.09     -0.883 
 C                     1.685     0.219    -1.447 
 P                    -0.238    -0.064     1.498 
 O                    -1.627     0.855    -1.858 
 O                    -0.651    -0.707    -3.077 
 O                     2.661     0.082    -0.411 
 O                     0.        0.821     0.175 
 O                     0.987    -0.837     1.8 
 O                    -0.58      0.904     2.738 
 O                    -1.465    -1.076     1.254 
 H                     0.279    -1.11     -0.5 
 H                     1.703     1.239    -1.83 
 H                     1.913    -0.476    -2.255 
 H                     3.519     0.285    -0.808 
 
                          Input orientation:                          
 ---------------------------------------------------------------------
 Center     Atomic      Atomic             Coordinates (Angstroms)
 Number     Number       Type             X           Y           Z
 ---------------------------------------------------------------------
      1          6           0       -0.731000    0.054000   -1.975000
      2          6           0        0.297000   -0.090000   -0.883000
      3          6           0        1.685000    0.219000   -1.447000
      4         15           0       -0.238000   -0.064000    1.498000
      5          8           0       -1.627000    0.855000   -1.858000
      6          8           0       -0.651000   -0.707000   -3.077000
      7          8           0        2.661000    0.082000   -0.411000
      8          8           0        0.000000    0.821000    0.175000
      9          8           0        0.987000   -0.837000    1.800000
     10          8           0       -0.580000    0.904000    2.738000
     11          8           0       -1.465000   -1.076000    1.254000
     12          1           0        0.279000   -1.110000   -0.500000
     13          1           0        1.703000    1.239000   -1.830000
     14          1           0        1.913000   -0.476000   -2.255000
     15          1           0        3.519000    0.285000   -0.808000
 ---------------------------------------------------------------------
                    Distance matrix (angstroms):
                    1          2          3          4          5
     1  C    0.000000
     2  C    1.506647   0.000000
     3  C    2.478521   1.529745   0.000000
     4  P    3.509801   2.440504   3.528604   0.000000
     5  O    1.207521   2.354873   3.397464   3.746547   0.000000
     6  O    1.341613   2.468406   2.995208   4.638388   2.208706
     7  O    3.735310   2.416788   1.429909   3.474161   4.591109
     8  O    2.396904   1.427408   2.415060   1.609409   2.604107
     9  O    4.242173   2.869250   3.485018   1.479648   4.803834
    10  O    4.791416   3.856009   4.807668   1.609841   4.714003
    11  O    3.498871   2.940002   4.346829   1.609102   3.665999
    12  H    2.133218   1.089685   2.154039   2.313744   3.055851
    13  H    2.711016   2.154039   1.089685   4.067047   3.352184
    14  H    2.711095   2.154724   1.089896   4.345291   3.802732
    15  H    4.413360   3.244616   1.943253   4.422045   5.282870
                    6          7          8          9         10
     6  O    0.000000
     7  O    4.324283   0.000000
     8  O    3.651587   2.823196   0.000000
     9  O    5.146365   2.921534   2.522649   0.000000
    10  O    6.034450   4.593035   2.629117   2.523175   0.000000
    11  O    4.422253   4.597506   2.628512   2.523399   2.627904
    12  H    2.769158   2.665091   2.064516   2.421940   3.908800
    13  H    3.298976   2.066392   2.663636   4.242562   5.117708
    14  H    2.702432   2.066689   3.353607   4.175024   5.748869
    15  H    4.849879   0.966945   3.692824   3.804152   5.455188
                   11         12         13         14         15
    11  O    0.000000
    12  H    2.473703   0.000000
    13  H    4.990642   3.051963   0.000000
    14  H    4.907542   2.480310   1.779312   0.000000
    15  H    5.562771   3.540973   2.291824   2.291760   0.000000
 Stoichiometry    C3H4O7P(3-)
 Framework group  C1[X(C3H4O7P)]
 Deg. of freedom    39
 Full point group                 C1      NOp   1
 Largest Abelian subgroup         C1      NOp   1
 Largest concise Abelian subgroup C1      NOp   1
                         Standard orientation:                         
 ---------------------------------------------------------------------
 Center     Atomic      Atomic             Coordinates (Angstroms)
 Number     Number       Type             X           Y           Z
 ---------------------------------------------------------------------
      1          6           0        1.905878   -0.861607   -0.035116
      2          6           0        0.849155    0.203708    0.100627
      3          6           0        1.463227    1.571183   -0.204412
      4         15           0       -1.548711   -0.248403    0.057083
      5          8           0        1.763797   -1.753345   -0.836816
      6          8           0        3.004331   -0.819556    0.734010
      7          8           0        0.460718    2.582584   -0.075246
      8          8           0       -0.211744   -0.056801   -0.818134
      9          8           0       -1.813749    0.986658    0.827627
     10          8           0       -2.792635   -0.547596   -0.920018
     11          8           0       -1.354906   -1.482703    1.071060
     12          1           0        0.458229    0.199429    1.117766
     13          1           0        1.854154    1.575462   -1.221551
     14          1           0        2.273488    1.771313    0.496515
     15          1           0        0.888729    3.426213   -0.275439
 ---------------------------------------------------------------------
 Rotational constants (GHZ):      1.4143691      0.7844834      0.5966700
 Standard basis: 6-31G(d) (6D, 7F)
 There are   177 symmetry adapted basis functions of A   symmetry.
 Integral buffers will be    131072 words long.
 Raffenetti 1 integral format.
 Two-electron integral symmetry is turned on.
   177 basis functions,   348 primitive gaussians,   177 cartesian basis functions
    48 alpha electrons       48 beta electrons
       nuclear repulsion energy       784.0206577744 Hartrees.
 NAtoms=   15 NActive=   15 NUniq=   15 SFac= 1.00D+00 NAtFMM=   60 NAOKFM=F Big=F
 One-electron integrals computed using PRISM.
 NBasis=   177 RedAO= T  NBF=   177
 NBsUse=   177 1.00D-06 NBFU=   177
 Harris functional with IExCor=  205 diagonalized for initial guess.
 ExpMin= 9.98D-02 ExpMax= 1.94D+04 ExpMxC= 2.91D+03 IAcc=2 IRadAn=         4 AccDes= 0.00D+00
 HarFok:  IExCor=  205 AccDes= 0.00D+00 IRadAn=         4 IDoV= 1
 ScaDFX=  1.000000  1.000000  1.000000  1.000000
 FoFCou: FMM=F IPFlag=           0 FMFlag=      100000 FMFlg1=           0
         NFxFlg=           0 DoJE=T BraDBF=F KetDBF=T FulRan=T
         Omega=  0.000000  0.000000  1.000000  0.000000  0.000000 ICntrl=     500 IOpCl=  0
         NMat0=    1 NMatS0=    1 NMatT0=    0 NMatD0=    1 NMtDS0=    0 NMtDT0=    0
         I1Cent=           4 NGrid=           0.
 Petite list used in FoFCou.
 Initial guess orbital symmetries:
       Occupied  (A) (A) (A) (A) (A) (A) (A) (A) (A) (A) (A) (A)
                 (A) (A) (A) (A) (A) (A) (A) (A) (A) (A) (A) (A)
                 (A) (A) (A) (A) (A) (A) (A) (A) (A) (A) (A) (A)
                 (A) (A) (A) (A) (A) (A) (A) (A) (A) (A) (A) (A)
       Virtual   (A) (A) (A) (A) (A) (A) (A) (A) (A) (A) (A) (A)
                 (A) (A) (A) (A) (A) (A) (A) (A) (A) (A) (A) (A)
                 (A) (A) (A) (A) (A) (A) (A) (A) (A) (A) (A) (A)
                 (A) (A) (A) (A) (A) (A) (A) (A) (A) (A) (A) (A)
                 (A) (A) (A) (A) (A) (A) (A) (A) (A) (A) (A) (A)
                 (A) (A) (A) (A) (A) (A) (A) (A) (A) (A) (A) (A)
                 (A) (A) (A) (A) (A) (A) (A) (A) (A) (A) (A) (A)
                 (A) (A) (A) (A) (A) (A) (A) (A) (A) (A) (A) (A)
                 (A) (A) (A) (A) (A) (A) (A) (A) (A) (A) (A) (A)
                 (A) (A) (A) (A) (A) (A) (A) (A) (A) (A) (A) (A)
                 (A) (A) (A) (A) (A) (A) (A) (A) (A)
 The electronic state of the initial guess is 1-A.
 Requested convergence on RMS density matrix=1.00D-08 within 128 cycles.
 Requested convergence on MAX density matrix=1.00D-06.
 Requested convergence on             energy=1.00D-06.
 No special actions if energy rises.
 Integral accuracy reduced to 1.0D-05 until final iterations.
 Initial convergence to 1.0D-05 achieved.  Increase integral accuracy.
 SCF Done:  E(RHF) =  -980.373269661     A.U. after   15 cycles
             Convg  =    0.5346D-08             -V/T =  2.0016

 **********************************************************************

            Population analysis using the SCF density.

 **********************************************************************

 Orbital symmetries:
 BldTbl:  Degeneracy threshold= 1.00D-02
       Occupied  (A) (A) (A) (A) (A) (A) (A) (A) (A) (A) (A) (A)
                 (A) (A) (A) (A) (A) (A) (A) (A) (A) (A) (A) (A)
                 (A) (A) (A) (A) (A) (A) (A) (A) (A) (A) (A) (A)
                 (A) (A) (A) (A) (A) (A) (A) (A) (A) (A) (A) (A)
       Virtual   (A) (A) (A) (A) (A) (A) (A) (A) (A) (A) (A) (A)
                 (A) (A) (A) (A) (A) (A) (A) (A) (A) (A) (A) (A)
                 (A) (A) (A) (A) (A) (A) (A) (A) (A) (A) (A) (A)
                 (A) (A) (A) (A) (A) (A) (A) (A) (A) (A) (A) (A)
                 (A) (A) (A) (A) (A) (A) (A) (A) (A) (A) (A) (A)
                 (A) (A) (A) (A) (A) (A) (A) (A) (A) (A) (A) (A)
                 (A) (A) (A) (A) (A) (A) (A) (A) (A) (A) (A) (A)
                 (A) (A) (A) (A) (A) (A) (A) (A) (A) (A) (A) (A)
                 (A) (A) (A) (A) (A) (A) (A) (A) (A) (A) (A) (A)
                 (A) (A) (A) (A) (A) (A) (A) (A) (A) (A) (A) (A)
                 (A) (A) (A) (A) (A) (A) (A) (A) (A)
 The electronic state is 1-A.
 Alpha  occ. eigenvalues --  -79.51260 -20.19050 -20.09445 -20.04541 -20.02414
 Alpha  occ. eigenvalues --  -19.94391 -19.93783 -19.93270 -10.89421 -10.87726
 Alpha  occ. eigenvalues --  -10.84205  -7.03292  -4.93258  -4.93083  -4.92975
 Alpha  occ. eigenvalues --   -0.98313  -0.93227  -0.90171  -0.77589  -0.75715
 Alpha  occ. eigenvalues --   -0.67142  -0.64883  -0.59873  -0.44747  -0.32790
 Alpha  occ. eigenvalues --   -0.28912  -0.25338  -0.22644  -0.20320  -0.17984
 Alpha  occ. eigenvalues --   -0.13858  -0.12289  -0.10405  -0.08085  -0.07306
 Alpha  occ. eigenvalues --   -0.05954  -0.03568  -0.00176   0.01432   0.05321
 Alpha  occ. eigenvalues --    0.05950   0.07079   0.07237   0.09437   0.09742
 Alpha  occ. eigenvalues --    0.13228   0.14266   0.16514
 Alpha virt. eigenvalues --    0.55468   0.64447   0.67514   0.68931   0.76160
 Alpha virt. eigenvalues --    0.77339   0.79519   0.85707   0.85959   0.87924
 Alpha virt. eigenvalues --    0.88723   0.91661   0.94344   1.01484   1.04740
 Alpha virt. eigenvalues --    1.06973   1.10599   1.12289   1.15995   1.21492
 Alpha virt. eigenvalues --    1.22366   1.23753   1.28542   1.32512   1.33439
 Alpha virt. eigenvalues --    1.39795   1.41181   1.43834   1.45275   1.47968
 Alpha virt. eigenvalues --    1.49697   1.51190   1.52142   1.55863   1.57542
 Alpha virt. eigenvalues --    1.58301   1.59423   1.60714   1.62859   1.65989
 Alpha virt. eigenvalues --    1.66937   1.70497   1.73204   1.74536   1.75017
 Alpha virt. eigenvalues --    1.78182   1.82296   1.83379   1.85065   1.86482
 Alpha virt. eigenvalues --    1.88711   1.90317   1.91911   1.92962   1.93535
 Alpha virt. eigenvalues --    1.95563   2.02119   2.05412   2.06272   2.09279
 Alpha virt. eigenvalues --    2.11816   2.14903   2.17880   2.20873   2.22940
 Alpha virt. eigenvalues --    2.26468   2.30014   2.34602   2.36320   2.41390
 Alpha virt. eigenvalues --    2.42858   2.45867   2.46825   2.53024   2.56266
 Alpha virt. eigenvalues --    2.59054   2.61999   2.62683   2.64403   2.66641
 Alpha virt. eigenvalues --    2.67166   2.69147   2.70553   2.71385   2.71494
 Alpha virt. eigenvalues --    2.72656   2.73080   2.73230   2.77066   2.78052
 Alpha virt. eigenvalues --    2.82488   2.84615   2.85600   2.90678   2.94248
 Alpha virt. eigenvalues --    2.97427   3.04005   3.06562   3.09773   3.10156
 Alpha virt. eigenvalues --    3.14255   3.16804   3.19766   3.20599   3.30440
 Alpha virt. eigenvalues --    3.34961   3.41929   3.44129   3.52495   3.56388
 Alpha virt. eigenvalues --    3.59806   3.64708   3.67381   3.72387   3.77282
 Alpha virt. eigenvalues --    3.78155   3.90069   4.00325   4.46263   4.58706
 Alpha virt. eigenvalues --    4.68401   4.72604   4.76605   4.90283   4.98374
 Alpha virt. eigenvalues --    5.09896   5.18150   5.27673   5.52451
          Condensed to atoms (all electrons):
              1          2          3          4          5          6
     1  C    4.104931   0.282918  -0.057959   0.000076   0.566265   0.435101
     2  C    0.282918   5.199685   0.284464  -0.046458  -0.101525  -0.105161
     3  C   -0.057959   0.284464   4.930061   0.003623  -0.000736   0.005849
     4  P    0.000076  -0.046458   0.003623  11.867157   0.003928  -0.000058
     5  O    0.566265  -0.101525  -0.000736   0.003928   8.331954  -0.107493
     6  O    0.435101  -0.105161   0.005849  -0.000058  -0.107493   8.689050
     7  O    0.001059  -0.046262   0.204779  -0.001408  -0.000016   0.000037
     8  O   -0.028969   0.152924  -0.047315   0.196070  -0.001910   0.001397
     9  O    0.000775   0.001026  -0.004142   0.529788  -0.000004   0.000000
    10  O   -0.000072   0.000059  -0.000036   0.500299  -0.000003   0.000000
    11  O   -0.000534  -0.001578   0.000833   0.482882  -0.000586  -0.000010
    12  H   -0.032457   0.382285  -0.040149   0.004034   0.000708   0.003424
    13  H   -0.000300  -0.039029   0.368313  -0.000968   0.001117   0.000530
    14  H    0.003261  -0.040896   0.371186   0.000555   0.000285   0.010186
    15  H   -0.000085   0.007298  -0.031005   0.000219   0.000002   0.000009
              7          8          9         10         11         12
     1  C    0.001059  -0.028969   0.000775  -0.000072  -0.000534  -0.032457
     2  C   -0.046262   0.152924   0.001026   0.000059  -0.001578   0.382285
     3  C    0.204779  -0.047315  -0.004142  -0.000036   0.000833  -0.040149
     4  P   -0.001408   0.196070   0.529788   0.500299   0.482882   0.004034
     5  O   -0.000016  -0.001910  -0.000004  -0.000003  -0.000586   0.000708
     6  O    0.000037   0.001397   0.000000   0.000000  -0.000010   0.003424
     7  O    8.377851   0.002643  -0.000040  -0.000010  -0.000008   0.000394
     8  O    0.002643   8.577838  -0.034957  -0.027638  -0.029899  -0.032123
     9  O   -0.000040  -0.034957   8.530741  -0.052892  -0.050741   0.008811
    10  O   -0.000010  -0.027638  -0.052892   8.640473  -0.043992   0.000112
    11  O   -0.000008  -0.029899  -0.050741  -0.043992   8.655514   0.010176
    12  H    0.000394  -0.032123   0.008811   0.000112   0.010176   0.476854
    13  H   -0.043296   0.001445  -0.000011  -0.000001  -0.000005   0.004875
    14  H   -0.041190   0.003511  -0.000057   0.000000   0.000003  -0.000918
    15  H    0.235639  -0.000239   0.000406   0.000000   0.000000  -0.000173
             13         14         15
     1  C   -0.000300   0.003261  -0.000085
     2  C   -0.039029  -0.040896   0.007298
     3  C    0.368313   0.371186  -0.031005
     4  P   -0.000968   0.000555   0.000219
     5  O    0.001117   0.000285   0.000002
     6  O    0.000530   0.010186   0.000009
     7  O   -0.043296  -0.041190   0.235639
     8  O    0.001445   0.003511  -0.000239
     9  O   -0.000011  -0.000057   0.000406
    10  O   -0.000001   0.000000   0.000000
    11  O   -0.000005   0.000003   0.000000
    12  H    0.004875  -0.000918  -0.000173
    13  H    0.683102  -0.049267  -0.005235
    14  H   -0.049267   0.648621  -0.005678
    15  H   -0.005235  -0.005678   0.446002
 Mulliken atomic charges:
              1
     1  C    0.725990
     2  C    0.070251
     3  C    0.012235
     4  P    1.460260
     5  O   -0.691987
     6  O   -0.932861
     7  O   -0.690172
     8  O   -0.732778
     9  O   -0.928704
    10  O   -1.016299
    11  O   -1.022054
    12  H    0.214145
    13  H    0.078731
    14  H    0.100401
    15  H    0.352839
 Sum of Mulliken atomic charges =  -3.00000
 Mulliken charges with hydrogens summed into heavy atoms:
              1
     1  C    0.725990
     2  C    0.284397
     3  C    0.191367
     4  P    1.460260
     5  O   -0.691987
     6  O   -0.932861
     7  O   -0.337332
     8  O   -0.732778
     9  O   -0.928704
    10  O   -1.016299
    11  O   -1.022054
 Sum of Mulliken charges with hydrogens summed into heavy atoms =  -3.00000
 DipInt: DoE/N= T F RetVal/Mat= T F Init=T NMatP=  1 IDeriv=0 Min/MaxMlt=  0  4
 Entering OneElI...
 OneElI was handed    33471635 working-precision words.
 Multipole integrals L=0 to 4 MinM= 0 MaxM= 0.
 Requested accuracy = 0.1000D-12
 PrsmSu:  NPrtUS=   1 ThrOK=F IAlg=1 NPAlg=1 LenDen=           0.
 Prism:   IPart=     0 DynPar=F LinDyn=F Incr=          12.
 PRISM was handed    33335749 working-precision words and  1293 shell-pairs
 IPart=  0 NShTot=        1293 NBatch=          61 AvBLen=        21.2
 PrSmSu:  NxtVal=             13.
 Electronic moments (au):
        -96.00000000          2.94527503          3.78257723         -0.82622838
      -1140.97952466       -605.10492906       -210.67293377          9.02605340
         -3.66576033         -1.87729901       -316.22950517       -877.38258078
        -17.92721876       -596.09196791        878.78532220        -73.21480087
        120.70964224        166.74442017         21.72586677         33.58130277
     -25531.95940927     -10511.83322006      -1154.48662733       1879.30626194
      -3065.01493279       -909.78397143        157.02274977         50.06272729
         51.28185549      -4979.41776698      -2892.31081577      -1193.97410144
       -226.71972303        916.96713161         34.02799525
 Electronic spatial extent (au):  <R**2>=           1956.7574
 DipInt: DoE/N= F T RetVal/Mat= T F Init=T NMatP=  1 IDeriv=0 Min/MaxMlt=  0  4
 Nuclear    moments (au):
         93.00000000          0.00000000          0.00000000          0.00000000
       1025.24425557        531.95912207        143.45887479          0.00000000
          0.00000000          0.00000000        316.41271441        941.52306537
         12.54488065        611.20945954       -794.64525112         63.06960624
       -102.86074855       -146.88607104        -36.21238984        -32.29764116
      19956.95914557       8618.28973478        429.86105525      -1699.93397413
       2701.41629704       1046.13882412       -198.86479181        -57.87485134
        -42.70986469       3790.98858892       1934.75788445        688.94702696
        200.32075679       -855.27509756        -32.43049162
 Total      moments (au):
         -3.00000000          2.94527503          3.78257723         -0.82622838
       -115.73526909        -73.14580698        -67.21405898          9.02605340
         -3.66576033         -1.87729901          0.18320924         64.14048459
         -5.38233811         15.11749163         84.14007108        -10.14519463
         17.84889369         19.85834912        -14.48652307          1.28366160
      -5575.00026370      -1893.54348528       -724.62557208        179.37228782
       -363.59863575        136.35485270        -41.84204204         -7.81212405
          8.57199080      -1188.42917806       -957.55293132       -505.02707448
        -26.39896623         61.69203406          1.59750363
 Traceless Quadrup. (au):
        -30.37022407         12.21923804         18.15098604          9.02605340
         -3.66576033         -1.87729901
 Charge=             -3.0000 electrons
 Dipole moment (field-independent basis, Debye):
    X=              7.4861    Y=              9.6144    Z=             -2.1001  Tot=             12.3648
 Quadrupole moment (field-independent basis, Debye-Ang):
   XX=           -155.6679   YY=            -98.3836   ZZ=            -90.4052
   XY=             12.1404   XZ=             -4.9306   YZ=             -2.5250
 Traceless Quadrupole moment (field-independent basis, Debye-Ang):
   XX=            -40.8490   YY=             16.4353   ZZ=             24.4137
   XY=             12.1404   XZ=             -4.9306   YZ=             -2.5250
 Octapole moment (field-independent basis, Debye-Ang**2):
  XXX=              0.1304  YYY=             45.6527  ZZZ=             -3.8309  XYY=             10.7600
  XXY=             59.8877  XXZ=             -7.2210  XZZ=             12.7042  YZZ=             14.1344
  YYZ=            -10.3109  XYZ=              0.9137
 Hexadecapole moment (field-independent basis, Debye-Ang**3):
 XXXX=          -2099.8123 YYYY=           -713.1992 ZZZZ=           -272.9287 XXXY=             67.5602
 XXXZ=           -136.9487 YYYX=             51.3578 YYYZ=            -15.7597 ZZZX=             -2.9424
 ZZZY=              3.2286 XXYY=           -447.6194 XXZZ=           -360.6603 YYZZ=           -190.2174
 XXYZ=             -9.9431 YYXZ=             23.2362 ZZXY=              0.6017
 N-N= 7.840206577744D+02 E-N=-3.943519036224D+03  KE= 9.787951695526D+02
 Entering OneElI...
 OneElI was handed    33408425 working-precision words.
 Calculate electrostatic properties
    NBasis =   177  MinDer = 0  MaxDer = 0
    NGrid  =    15  NMatD  =   1
 Requested accuracy = 0.1000D-12
 PrsmSu:  NPrtUS=   1 ThrOK=F IAlg=1 NPAlg=1 LenDen=           0.
 Prism:   IPart=     0 DynPar=F LinDyn=F Incr=         183.
 PRISM was handed    33280859 working-precision words and  1220 shell-pairs
 IPart=  0 NShTot=       18300 NBatch=        1220 AvBLen=        15.0
 PrSmSu:  NxtVal=            184.
 --------------------------------------------------------
       Center         ----      EFG at Nuclei      ----
                      3XX-RR        3YY-RR        3ZZ-RR
 --------------------------------------------------------
     1   Atom        0.070953      0.070341     -0.141294
     2   Atom       -0.102309      0.051812      0.050497
     3   Atom       -0.105655     -0.016961      0.122616
     4   Atom       -0.381236      0.409333     -0.028097
     5   Atom        1.102408     -0.542401     -0.560008
     6   Atom       -0.866916      0.943778     -0.076862
     7   Atom       -0.033536     -1.848304      1.881840
     8   Atom       -1.225234      1.401831     -0.176597
     9   Atom        0.253557     -0.317543      0.063986
    10   Atom       -0.813979      0.674522      0.139456
    11   Atom        0.538565     -0.338663     -0.199902
    12   Atom        0.084080      0.156173     -0.240253
    13   Atom        0.096076      0.148855     -0.244932
    14   Atom       -0.101052      0.132071     -0.031019
    15   Atom        0.083363     -0.319048      0.235685
 --------------------------------------------------------
                        XY            XZ            YZ
 --------------------------------------------------------
     1   Atom       -0.241681      0.260445      0.357763
     2   Atom       -0.153053     -0.260797     -0.014643
     3   Atom        0.311654      0.041545     -0.052219
     4   Atom       -0.120595      0.368059      0.205301
     5   Atom       -0.737404      0.649581     -0.345587
     6   Atom       -0.272552     -0.875973      0.554449
     7   Atom        0.169273      0.501105      0.392045
     8   Atom       -0.648601     -0.648941     -0.181935
     9   Atom        0.310259      0.242698     -0.585376
    10   Atom       -0.304931     -0.748817     -0.126290
    11   Atom       -0.027168      0.001281      0.986675
    12   Atom       -0.008277      0.117281     -0.009153
    13   Atom        0.006558      0.160574      0.009778
    14   Atom       -0.067097     -0.215751     -0.064263
    15   Atom       -0.262492      0.075378      0.130633
 --------------------------------------------------------


 ---------------------------------------------------------------------------------
              Nuclear Quadrupole in Principal Axis System
 ---------------------------------------------------------------------------------

       Atom             a.u.   MegaHertz   Gauss  10(-4) cm-1        Axes

              Baa    -0.5961   -79.992   -28.543   -26.682 -0.4688 -0.5437  0.6961
     1 C(13)  Bbb     0.2461    33.019    11.782    11.014  0.8272  0.0061  0.5618
              Bcc     0.3500    46.973    16.761    15.668 -0.3097  0.8393  0.4469
 
              Baa    -0.3426   -45.973   -16.404   -15.335  0.7829  0.3235  0.5314
     2 C(13)  Bbb     0.0642     8.612     3.073     2.873 -0.0228  0.8685 -0.4951
              Bcc     0.2784    37.362    13.332    12.462 -0.6218  0.3755  0.6873
 
              Baa    -0.3846   -51.608   -18.415   -17.215  0.7474 -0.6518 -0.1283
     3 C(13)  Bbb     0.1299    17.433     6.221     5.815  0.1606 -0.0102  0.9870
              Bcc     0.2547    34.175    12.195    11.400  0.6447  0.7583 -0.0970
 
              Baa    -0.6554  -141.692   -50.559   -47.263  0.8160  0.1972 -0.5433
     4 P(31)  Bbb     0.1640    35.446    12.648    11.823  0.5768 -0.3386  0.7434
              Bcc     0.4915   106.247    37.911    35.440  0.0373  0.9201  0.3900
 
              Baa    -0.9009    65.187    23.260    21.744  0.0795  0.7718  0.6309
     5 O(17)  Bbb    -0.7277    52.656    18.789    17.564 -0.4653 -0.5310  0.7082
              Bcc     1.6286  -117.843   -42.049   -39.308  0.8816 -0.3499  0.3169
 
              Baa    -1.4352   103.849    37.056    34.640  0.8338 -0.0329  0.5511
     6 O(17)  Bbb     0.0631    -4.569    -1.630    -1.524 -0.4686 -0.5700  0.6749
              Bcc     1.3720   -99.280   -35.425   -33.116 -0.2919  0.8210  0.4907
 
              Baa    -1.8966   137.239    48.970    45.778 -0.0648  0.9934 -0.0945
     7 O(17)  Bbb    -0.1539    11.136     3.973     3.714  0.9684  0.0398 -0.2461
              Bcc     2.0505  -148.375   -52.944   -49.493  0.2407  0.1074  0.9646
 
              Baa    -1.6785   121.458    43.339    40.514  0.8877  0.2111  0.4091
     8 O(17)  Bbb     0.1247    -9.026    -3.221    -3.011 -0.4027 -0.0746  0.9123
              Bcc     1.5538  -112.432   -40.118   -37.503 -0.2231  0.9746 -0.0188
 
              Baa    -0.8793    63.623    22.702    21.222 -0.3283  0.7624  0.5576
     9 O(17)  Bbb     0.3886   -28.117   -10.033    -9.379  0.9362  0.3413  0.0845
              Bcc     0.4907   -35.506   -12.670   -11.844  0.1258 -0.5498  0.8258
 
              Baa    -1.2800    92.623    33.050    30.896  0.8661  0.1656  0.4716
    10 O(17)  Bbb     0.5437   -39.339   -14.037   -13.122 -0.4426 -0.1844  0.8776
              Bcc     0.7364   -53.283   -19.013   -17.773 -0.2323  0.9688  0.0864
 
              Baa    -1.2586    91.074    32.497    30.379  0.0115  0.7315 -0.6817
    11 O(17)  Bbb     0.5371   -38.865   -13.868   -12.964  0.9953  0.0569  0.0779
              Bcc     0.7215   -52.209   -18.629   -17.415 -0.0958  0.6795  0.7274
 
              Baa    -0.2783  -148.491   -52.985   -49.531 -0.3076  0.0142  0.9514
    12 H(1)   Bbb     0.1190    63.481    22.652    21.175  0.9158  0.2757  0.2920
              Bcc     0.1593    85.009    30.333    28.356 -0.2581  0.9612 -0.0978
 
              Baa    -0.3087  -164.728   -58.779   -54.947 -0.3685 -0.0146  0.9295
    13 H(1)   Bbb     0.1433    76.436    27.274    25.496 -0.4752  0.8623 -0.1749
              Bcc     0.1655    88.292    31.505    29.451  0.7990  0.5062  0.3247
 
              Baa    -0.3043  -162.373   -57.939   -54.162  0.7434  0.2079  0.6357
    14 H(1)   Bbb     0.1468    78.326    27.949    26.127 -0.5588  0.7154  0.4195
              Bcc     0.1575    84.047    29.990    28.035  0.3676  0.6671 -0.6480
 
              Baa    -0.4802  -256.224   -91.427   -85.467  0.4357  0.8763 -0.2058
    15 H(1)   Bbb     0.2113   112.719    40.221    37.599  0.8674 -0.4698 -0.1642
              Bcc     0.2690   143.505    51.206    47.868  0.2406  0.1069  0.9647
 

 ---------------------------------------------------------------------------------

 No NMR shielding tensors so no spin-rotation constants.
 Leave Link  601 at Wed Sep 16 21:34:20 2015, MaxMem=   33554432 cpu:       0.3
 Merz-Kollman atomic radii used.
 Atom Element Radius
    1     6    1.50
    2     6    1.50
    3     6    1.50
    4    15    1.80
    5     8    1.40
    6     8    1.40
    7     8    1.40
    8     8    1.40
    9     8    1.40
   10     8    1.40
   11     8    1.40
   12     1    1.20
   13     1    1.20
   14     1    1.20
   15     1    1.20
 Generate VDW surfaces: Layer= 4 Dens= 6 Start= 1.400 Inc= 0.200

 **********************************************************************

            Electrostatic Properties Using The SCF Density

 **********************************************************************

       Atomic Center    1 is at   1.905878 -0.861607 -0.035116
       Atomic Center    2 is at   0.849155  0.203708  0.100627
       Atomic Center    3 is at   1.463227  1.571183 -0.204412
       Atomic Center    4 is at  -1.548711 -0.248403  0.057083
       Atomic Center    5 is at   1.763797 -1.753345 -0.836816
       Atomic Center    6 is at   3.004331 -0.819556  0.734010
       Atomic Center    7 is at   0.460718  2.582584 -0.075246
       Atomic Center    8 is at  -0.211744 -0.056801 -0.818134
       Atomic Center    9 is at  -1.813749  0.986658  0.827627
       Atomic Center   10 is at  -2.792635 -0.547596 -0.920018
       Atomic Center   11 is at  -1.354906 -1.482703  1.071060
       Atomic Center   12 is at   0.458229  0.199429  1.117766
       Atomic Center   13 is at   1.854154  1.575462 -1.221551
       Atomic Center   14 is at   2.273488  1.771313  0.496515
       Atomic Center   15 is at   0.888729  3.426213 -0.275439
      ESP Fit Center   16 is at   1.496188 -0.861607  2.024533
      ESP Fit Center   17 is at   1.209909 -1.263424  1.905031
      ESP Fit Center   18 is at   1.504060 -1.557575  1.905031
      ESP Fit Center   19 is at   0.913931 -1.475794  1.710970
      ESP Fit Center   20 is at   1.202785 -1.792652  1.710970
      ESP Fit Center   21 is at   1.586596 -1.983766  1.710970
      ESP Fit Center   22 is at   0.656680 -1.664417  1.449808
      ESP Fit Center   23 is at   0.933459 -1.983838  1.449808
      ESP Fit Center   24 is at   1.289018 -2.212341  1.449808
      ESP Fit Center   25 is at   1.694551 -2.331417  1.449808
      ESP Fit Center   26 is at   0.598913 -2.019476  1.131581
      ESP Fit Center   27 is at   0.913988 -2.298608  1.131581
      ESP Fit Center   28 is at   1.286707 -2.494226  1.131581
      ESP Fit Center   29 is at   1.695410 -2.594962  1.131581
      ESP Fit Center   30 is at   2.116345 -2.594962  1.131581
      ESP Fit Center   31 is at   0.497340 -2.195845  0.768519
      ESP Fit Center   32 is at   0.817092 -2.467445  0.768519
      ESP Fit Center   33 is at   2.424922 -2.731035  0.768519
      ESP Fit Center   34 is at   3.450415  0.312520 -0.838751
      ESP Fit Center   35 is at   3.651964 -0.861607 -1.201814
      ESP Fit Center   36 is at   3.601226 -0.443741 -1.201814
      ESP Fit Center   37 is at   3.451960 -0.050160 -1.201814
      ESP Fit Center   38 is at   3.212842  0.296262 -1.201814
      ESP Fit Center   39 is at   3.390802 -0.861607 -1.520040
      ESP Fit Center   40 is at   3.330652 -0.443255 -1.520040
      ESP Fit Center   41 is at   3.155075 -0.058796 -1.520040
      ESP Fit Center   42 is at   2.878296  0.260624 -1.520040
      ESP Fit Center   43 is at   2.993791 -0.440147 -1.781202
      ESP Fit Center   44 is at   2.768077 -0.075608 -1.781202
      ESP Fit Center   45 is at   2.307695 -0.165638 -1.975263
      ESP Fit Center   46 is at   1.905878 -0.057972 -1.975263
      ESP Fit Center   47 is at   1.504060 -0.165638 -1.975263
      ESP Fit Center   48 is at   1.937068  0.625168  1.846713
      ESP Fit Center   49 is at   1.258383  1.925984  1.855237
      ESP Fit Center   50 is at   2.629925  3.317269 -0.204412
      ESP Fit Center   51 is at   3.522876  1.571183 -0.614102
      ESP Fit Center   52 is at   3.153712  2.747795 -0.614102
      ESP Fit Center   53 is at   2.882257  3.064001 -0.614102
      ESP Fit Center   54 is at   2.552708  3.319092 -0.614102
      ESP Fit Center   55 is at   3.355958  0.758948 -0.614102
      ESP Fit Center   56 is at   3.480715  1.156578 -0.614102
      ESP Fit Center   57 is at   2.719252  3.049889 -1.008047
      ESP Fit Center   58 is at   0.316395  1.785563 -1.950498
      ESP Fit Center   59 is at  -1.341322  0.110806  2.542713
      ESP Fit Center   60 is at  -1.963489 -0.248403  2.542713
      ESP Fit Center   61 is at  -0.840092  0.160719  2.440542
      ESP Fit Center   62 is at  -2.366954 -0.248403  2.440542
      ESP Fit Center   63 is at  -2.748098 -0.248403  2.273357
      ESP Fit Center   64 is at  -2.675767 -0.658617  2.273357
      ESP Fit Center   65 is at  -3.082111 -0.037642  2.045717
      ESP Fit Center   66 is at  -3.082111 -0.459164  2.045717
      ESP Fit Center   67 is at  -2.968385 -0.865054  2.045717
      ESP Fit Center   68 is at  -3.390199 -0.033164  1.763832
      ESP Fit Center   69 is at  -3.390199 -0.463642  1.763832
      ESP Fit Center   70 is at  -3.290924 -0.882516  1.763832
      ESP Fit Center   71 is at  -3.647547 -0.034972  1.435392
      ESP Fit Center   72 is at  -3.647547 -0.461833  1.435392
      ESP Fit Center   73 is at  -3.561620 -0.879957  1.435392
      ESP Fit Center   74 is at  -3.393285 -1.272225  1.435392
      ESP Fit Center   75 is at  -3.817166  0.175645  1.069355
      ESP Fit Center   76 is at  -3.856460 -0.248403  1.069355
      ESP Fit Center   77 is at  -3.817166 -0.672450  1.069355
      ESP Fit Center   78 is at  -3.700623 -1.082058  1.069355
      ESP Fit Center   79 is at  -3.510799 -1.463276  1.069355
      ESP Fit Center   80 is at  -3.844275  0.587115  0.675706
      ESP Fit Center   81 is at  -3.954487  0.175801  0.675706
      ESP Fit Center   82 is at  -3.991600 -0.248403  0.675706
      ESP Fit Center   83 is at  -3.954487 -0.672606  0.675706
      ESP Fit Center   84 is at  -3.844275 -1.083920  0.675706
      ESP Fit Center   85 is at  -3.664315 -1.469847  0.675706
      ESP Fit Center   86 is at  -3.420072 -1.818661  0.675706
      ESP Fit Center   87 is at  -3.837164  0.786043  0.265183
      ESP Fit Center   88 is at  -3.042069 -2.267555  0.265183
      ESP Fit Center   89 is at  -3.629424  1.157914 -0.151017
      ESP Fit Center   90 is at  -2.679350 -2.490890 -0.151017
      ESP Fit Center   91 is at  -3.118970  1.622959 -0.561541
      ESP Fit Center   92 is at  -3.420072  1.321856 -0.561541
      ESP Fit Center   93 is at  -2.384228 -2.543967 -0.561541
      ESP Fit Center   94 is at  -1.972914 -2.654178 -0.561541
      ESP Fit Center   95 is at  -1.548711 -2.691291 -0.561541
      ESP Fit Center   96 is at  -1.124508 -2.654178 -0.561541
      ESP Fit Center   97 is at  -0.713194 -2.543967 -0.561541
      ESP Fit Center   98 is at  -0.327267 -2.364006 -0.561541
      ESP Fit Center   99 is at  -1.335779  2.049502 -0.955190
      ESP Fit Center  100 is at  -1.761643  2.049502 -0.955190
      ESP Fit Center  101 is at  -2.180256  1.971249 -0.955190
      ESP Fit Center  102 is at  -2.577363  1.817409 -0.955190
      ESP Fit Center  103 is at  -2.939440  1.593221 -0.955190
      ESP Fit Center  104 is at  -2.180256 -2.468055 -0.955190
      ESP Fit Center  105 is at  -1.761643 -2.546307 -0.955190
      ESP Fit Center  106 is at  -1.335779 -2.546307 -0.955190
      ESP Fit Center  107 is at  -0.917166 -2.468055 -0.955190
      ESP Fit Center  108 is at  -0.520059 -2.314215 -0.955190
      ESP Fit Center  109 is at  -1.229250  1.836929 -1.321227
      ESP Fit Center  110 is at  -1.655564  1.858549 -1.321227
      ESP Fit Center  111 is at  -2.077503  1.793911 -1.321227
      ESP Fit Center  112 is at  -2.477793  1.645659 -1.321227
      ESP Fit Center  113 is at  -2.840046  1.419865 -1.321227
      ESP Fit Center  114 is at  -1.655564 -2.355354 -1.321227
      ESP Fit Center  115 is at  -1.229250 -2.333734 -1.321227
      ESP Fit Center  116 is at  -0.816015 -2.226740 -1.321227
      ESP Fit Center  117 is at  -0.432777 -2.038753 -1.321227
      ESP Fit Center  118 is at  -1.226763  1.577455 -1.649667
      ESP Fit Center  119 is at  -1.656513  1.602485 -1.649667
      ESP Fit Center  120 is at  -2.080451  1.527733 -1.649667
      ESP Fit Center  121 is at  -2.475723  1.357229 -1.649667
      ESP Fit Center  122 is at  -1.656513 -2.099290 -1.649667
      ESP Fit Center  123 is at  -1.226763 -2.074260 -1.649667
      ESP Fit Center  124 is at  -0.814370 -1.950798 -1.649667
      ESP Fit Center  125 is at  -1.233799  1.267039 -1.931551
      ESP Fit Center  126 is at  -1.654338  1.295805 -1.931551
      ESP Fit Center  127 is at  -2.067043  1.210044 -1.931551
      ESP Fit Center  128 is at  -1.654338 -1.792610 -1.931551
      ESP Fit Center  129 is at  -1.233799 -1.763845 -1.931551
      ESP Fit Center  130 is at  -0.836615 -1.622686 -1.931551
      ESP Fit Center  131 is at  -1.340440  0.932763 -2.159191
      ESP Fit Center  132 is at  -1.756982  0.932763 -2.159191
      ESP Fit Center  133 is at  -1.340440 -1.429569 -2.159191
      ESP Fit Center  134 is at  -0.949017 -1.287103 -2.159191
      ESP Fit Center  135 is at  -1.548711  0.569840 -2.326377
      ESP Fit Center  136 is at  -1.139590 -0.957022 -2.326377
      ESP Fit Center  137 is at  -1.341322  0.110806 -2.428548
      ESP Fit Center  138 is at  -1.341322 -0.607611 -2.428548
      ESP Fit Center  139 is at  -1.548711 -0.248403 -2.462917
      ESP Fit Center  140 is at   1.069527 -2.672708  0.748858
      ESP Fit Center  141 is at   1.448521 -2.861425  0.748858
      ESP Fit Center  142 is at   1.870096 -2.900490  0.748858
      ESP Fit Center  143 is at   2.277314 -2.784626  0.748858
      ESP Fit Center  144 is at   0.538458 -2.540823  0.474680
      ESP Fit Center  145 is at   0.809951 -2.854143  0.474680
      ESP Fit Center  146 is at   1.158719 -3.078282  0.474680
      ESP Fit Center  147 is at   1.556507 -3.195083  0.474680
      ESP Fit Center  148 is at   1.971088 -3.195083  0.474680
      ESP Fit Center  149 is at   2.368876 -3.078282  0.474680
      ESP Fit Center  150 is at   2.717644 -2.854143  0.474680
      ESP Fit Center  151 is at   0.185586 -2.378203  0.143184
      ESP Fit Center  152 is at   0.390564 -2.751057  0.143184
      ESP Fit Center  153 is at   0.681828 -3.061222  0.143184
      ESP Fit Center  154 is at   1.041075 -3.289207  0.143184
      ESP Fit Center  155 is at   1.445734 -3.420689  0.143184
      ESP Fit Center  156 is at   1.870379 -3.447405  0.143184
      ESP Fit Center  157 is at   2.288326 -3.367678  0.143184
      ESP Fit Center  158 is at   2.673315 -3.186516  0.143184
      ESP Fit Center  159 is at   3.001156 -2.915302  0.143184
      ESP Fit Center  160 is at   0.084328 -2.562135 -0.231142
      ESP Fit Center  161 is at   0.306408 -2.915574 -0.231142
      ESP Fit Center  162 is at   0.601568 -3.210734 -0.231142
      ESP Fit Center  163 is at   0.955007 -3.432815 -0.231142
      ESP Fit Center  164 is at   1.349003 -3.570680 -0.231142
      ESP Fit Center  165 is at   1.763797 -3.617416 -0.231142
      ESP Fit Center  166 is at   2.178592 -3.570680 -0.231142
      ESP Fit Center  167 is at   2.572587 -3.432815 -0.231142
      ESP Fit Center  168 is at   2.926026 -3.210734 -0.231142
      ESP Fit Center  169 is at   3.221187 -2.915574 -0.231142
      ESP Fit Center  170 is at   3.443267 -2.562135 -0.231142
      ESP Fit Center  171 is at  -0.083428 -2.375748 -0.631940
      ESP Fit Center  172 is at   0.093557 -2.758295 -0.631940
      ESP Fit Center  173 is at   0.348641 -3.093852 -0.631940
      ESP Fit Center  174 is at   0.669896 -3.366729 -0.631940
      ESP Fit Center  175 is at   1.042301 -3.564165 -0.631940
      ESP Fit Center  176 is at   1.448442 -3.676929 -0.631940
      ESP Fit Center  177 is at   1.869328 -3.699749 -0.631940
      ESP Fit Center  178 is at   2.285280 -3.631557 -0.631940
      ESP Fit Center  179 is at   2.676849 -3.475542 -0.631940
      ESP Fit Center  180 is at   3.025723 -3.238999 -0.631940
      ESP Fit Center  181 is at   3.315592 -2.932989 -0.631940
      ESP Fit Center  182 is at   3.532900 -2.571819 -0.631940
      ESP Fit Center  183 is at   3.667488 -2.172379 -0.631940
      ESP Fit Center  184 is at   3.713060 -1.753345 -1.041692
      ESP Fit Center  185 is at  -0.083428 -2.375748 -1.041692
      ESP Fit Center  186 is at   0.093557 -2.758295 -1.041692
      ESP Fit Center  187 is at   0.348641 -3.093852 -1.041692
      ESP Fit Center  188 is at   0.669896 -3.366729 -1.041692
      ESP Fit Center  189 is at   1.042301 -3.564165 -1.041692
      ESP Fit Center  190 is at   1.448442 -3.676929 -1.041692
      ESP Fit Center  191 is at   1.869328 -3.699749 -1.041692
      ESP Fit Center  192 is at   2.285280 -3.631557 -1.041692
      ESP Fit Center  193 is at   2.676849 -3.475542 -1.041692
      ESP Fit Center  194 is at   3.025723 -3.238999 -1.041692
      ESP Fit Center  195 is at   3.315592 -2.932989 -1.041692
      ESP Fit Center  196 is at   3.532900 -2.571819 -1.041692
      ESP Fit Center  197 is at   3.667488 -2.172379 -1.041692
      ESP Fit Center  198 is at   3.627868 -1.753345 -1.442489
      ESP Fit Center  199 is at   3.581132 -1.338550 -1.442489
      ESP Fit Center  200 is at  -0.053537 -2.168140 -1.442489
      ESP Fit Center  201 is at   0.084328 -2.562135 -1.442489
      ESP Fit Center  202 is at   0.306408 -2.915574 -1.442489
      ESP Fit Center  203 is at   0.601568 -3.210734 -1.442489
      ESP Fit Center  204 is at   0.955007 -3.432815 -1.442489
      ESP Fit Center  205 is at   1.349003 -3.570680 -1.442489
      ESP Fit Center  206 is at   1.763797 -3.617416 -1.442489
      ESP Fit Center  207 is at   2.178592 -3.570680 -1.442489
      ESP Fit Center  208 is at   2.572587 -3.432815 -1.442489
      ESP Fit Center  209 is at   2.926026 -3.210734 -1.442489
      ESP Fit Center  210 is at   3.221187 -2.915574 -1.442489
      ESP Fit Center  211 is at   3.443267 -2.562135 -1.442489
      ESP Fit Center  212 is at   3.581132 -2.168140 -1.442489
      ESP Fit Center  213 is at   3.461207 -1.753345 -1.816816
      ESP Fit Center  214 is at   3.407880 -1.331216 -1.816816
      ESP Fit Center  215 is at   3.251249 -0.935612 -1.816816
      ESP Fit Center  216 is at   3.001156 -0.591388 -1.816816
      ESP Fit Center  217 is at   0.079772 -1.966087 -1.816816
      ESP Fit Center  218 is at   0.185586 -2.378203 -1.816816
      ESP Fit Center  219 is at   0.390564 -2.751057 -1.816816
      ESP Fit Center  220 is at   0.681828 -3.061222 -1.816816
      ESP Fit Center  221 is at   1.041075 -3.289207 -1.816816
      ESP Fit Center  222 is at   1.445734 -3.420689 -1.816816
      ESP Fit Center  223 is at   1.870379 -3.447405 -1.816816
      ESP Fit Center  224 is at   2.288326 -3.367678 -1.816816
      ESP Fit Center  225 is at   2.673315 -3.186516 -1.816816
      ESP Fit Center  226 is at   3.001156 -2.915302 -1.816816
      ESP Fit Center  227 is at   3.251249 -2.571078 -1.816816
      ESP Fit Center  228 is at   3.407880 -2.175474 -1.816816
      ESP Fit Center  229 is at   3.220361 -1.753345 -2.148312
      ESP Fit Center  230 is at   3.161360 -1.342984 -2.148312
      ESP Fit Center  231 is at   2.989137 -0.965867 -2.148312
      ESP Fit Center  232 is at   2.717644 -0.652548 -2.148312
      ESP Fit Center  233 is at   2.368876 -0.428408 -2.148312
      ESP Fit Center  234 is at   1.971088 -0.311607 -2.148312
      ESP Fit Center  235 is at   1.556507 -0.311607 -2.148312
      ESP Fit Center  236 is at   0.307234 -1.753345 -2.148312
      ESP Fit Center  237 is at   0.366235 -2.163706 -2.148312
      ESP Fit Center  238 is at   0.538458 -2.540823 -2.148312
      ESP Fit Center  239 is at   0.809951 -2.854143 -2.148312
      ESP Fit Center  240 is at   1.158719 -3.078282 -2.148312
      ESP Fit Center  241 is at   1.556507 -3.195083 -2.148312
      ESP Fit Center  242 is at   1.971088 -3.195083 -2.148312
      ESP Fit Center  243 is at   2.368876 -3.078282 -2.148312
      ESP Fit Center  244 is at   2.717644 -2.854143 -2.148312
      ESP Fit Center  245 is at   2.989137 -2.540823 -2.148312
      ESP Fit Center  246 is at   3.161360 -2.163706 -2.148312
      ESP Fit Center  247 is at   2.915856 -1.753345 -2.422489
      ESP Fit Center  248 is at   2.838060 -1.337173 -2.422489
      ESP Fit Center  249 is at   2.615179 -0.977208 -2.422489
      ESP Fit Center  250 is at   2.277314 -0.722064 -2.422489
      ESP Fit Center  251 is at   1.870096 -0.606200 -2.422489
      ESP Fit Center  252 is at   1.448521 -0.645265 -2.422489
      ESP Fit Center  253 is at   1.069527 -0.833982 -2.422489
      ESP Fit Center  254 is at   0.784297 -1.146864 -2.422489
      ESP Fit Center  255 is at   0.631354 -1.541655 -2.422489
      ESP Fit Center  256 is at   0.631354 -1.965035 -2.422489
      ESP Fit Center  257 is at   0.784297 -2.359826 -2.422489
      ESP Fit Center  258 is at   1.069527 -2.672708 -2.422489
      ESP Fit Center  259 is at   1.448521 -2.861425 -2.422489
      ESP Fit Center  260 is at   1.870096 -2.900490 -2.422489
      ESP Fit Center  261 is at   2.277314 -2.784626 -2.422489
      ESP Fit Center  262 is at   2.615179 -2.529482 -2.422489
      ESP Fit Center  263 is at   2.838060 -2.169517 -2.422489
      ESP Fit Center  264 is at   2.561001 -1.753345 -2.627365
      ESP Fit Center  265 is at   2.454196 -1.354743 -2.627365
      ESP Fit Center  266 is at   2.162399 -1.062946 -2.627365
      ESP Fit Center  267 is at   1.763797 -0.956141 -2.627365
      ESP Fit Center  268 is at   1.365195 -1.062946 -2.627365
      ESP Fit Center  269 is at   1.073399 -1.354743 -2.627365
      ESP Fit Center  270 is at   0.966594 -1.753345 -2.627365
      ESP Fit Center  271 is at   1.073399 -2.151947 -2.627365
      ESP Fit Center  272 is at   1.365195 -2.443744 -2.627365
      ESP Fit Center  273 is at   1.763797 -2.550549 -2.627365
      ESP Fit Center  274 is at   2.162399 -2.443744 -2.627365
      ESP Fit Center  275 is at   2.454196 -2.151947 -2.627365
      ESP Fit Center  276 is at   2.171304 -1.753345 -2.753985
      ESP Fit Center  277 is at   1.967551 -1.400434 -2.753985
      ESP Fit Center  278 is at   1.560044 -1.400434 -2.753985
      ESP Fit Center  279 is at   1.356290 -1.753345 -2.753985
      ESP Fit Center  280 is at   1.560044 -2.106256 -2.753985
      ESP Fit Center  281 is at   1.967551 -2.106256 -2.753985
      ESP Fit Center  282 is at   1.763797 -1.753345 -2.796816
      ESP Fit Center  283 is at   3.004331 -0.819556  2.694010
      ESP Fit Center  284 is at   3.411838 -0.819556  2.651180
      ESP Fit Center  285 is at   3.208085 -0.466645  2.651180
      ESP Fit Center  286 is at   2.800578 -0.466645  2.651180
      ESP Fit Center  287 is at   2.596825 -0.819556  2.651180
      ESP Fit Center  288 is at   2.800578 -1.172468  2.651180
      ESP Fit Center  289 is at   3.208085 -1.172468  2.651180
      ESP Fit Center  290 is at   3.801535 -0.819556  2.524560
      ESP Fit Center  291 is at   3.694730 -0.420954  2.524560
      ESP Fit Center  292 is at   3.402933 -0.129158  2.524560
      ESP Fit Center  293 is at   3.004331 -0.022353  2.524560
      ESP Fit Center  294 is at   2.605730 -0.129158  2.524560
      ESP Fit Center  295 is at   2.313933 -0.420954  2.524560
      ESP Fit Center  296 is at   2.207128 -0.819556  2.524560
      ESP Fit Center  297 is at   2.313933 -1.218158  2.524560
      ESP Fit Center  298 is at   2.605730 -1.509955  2.524560
      ESP Fit Center  299 is at   3.004331 -1.616760  2.524560
      ESP Fit Center  300 is at   3.402933 -1.509955  2.524560
      ESP Fit Center  301 is at   3.694730 -1.218158  2.524560
      ESP Fit Center  302 is at   4.156391 -0.819556  2.319684
      ESP Fit Center  303 is at   4.078595 -0.403385  2.319684
      ESP Fit Center  304 is at   3.855713 -0.043419  2.319684
      ESP Fit Center  305 is at   3.517848  0.211725  2.319684
      ESP Fit Center  306 is at   3.110630  0.327588  2.319684
      ESP Fit Center  307 is at   2.689055  0.288524  2.319684
      ESP Fit Center  308 is at   2.310061  0.099807  2.319684
      ESP Fit Center  309 is at   2.024831 -0.213075  2.319684
      ESP Fit Center  310 is at   1.871888 -0.607866  2.319684
      ESP Fit Center  311 is at   1.871888 -1.031247  2.319684
      ESP Fit Center  312 is at   2.024831 -1.426037  2.319684
      ESP Fit Center  313 is at   2.310061 -1.738919  2.319684
      ESP Fit Center  314 is at   2.689055 -1.927636  2.319684
      ESP Fit Center  315 is at   3.110630 -1.966701  2.319684
      ESP Fit Center  316 is at   3.517848 -1.850837  2.319684
      ESP Fit Center  317 is at   3.855713 -1.595694  2.319684
      ESP Fit Center  318 is at   4.078595 -1.235728  2.319684
      ESP Fit Center  319 is at   4.460895 -0.819556  2.045506
      ESP Fit Center  320 is at   4.401894 -0.409195  2.045506
      ESP Fit Center  321 is at   4.229671 -0.032079  2.045506
      ESP Fit Center  322 is at   3.958178  0.281241  2.045506
      ESP Fit Center  323 is at   3.609410  0.505381  2.045506
      ESP Fit Center  324 is at   3.211622  0.622182  2.045506
      ESP Fit Center  325 is at   2.797041  0.622182  2.045506
      ESP Fit Center  326 is at   2.399253  0.505381  2.045506
      ESP Fit Center  327 is at   2.050485  0.281241  2.045506
      ESP Fit Center  328 is at   1.547768 -0.819556  2.045506
      ESP Fit Center  329 is at   1.606769 -1.229918  2.045506
      ESP Fit Center  330 is at   1.778992 -1.607034  2.045506
      ESP Fit Center  331 is at   2.050485 -1.920354  2.045506
      ESP Fit Center  332 is at   2.399253 -2.144493  2.045506
      ESP Fit Center  333 is at   2.797041 -2.261295  2.045506
      ESP Fit Center  334 is at   3.211622 -2.261295  2.045506
      ESP Fit Center  335 is at   3.609410 -2.144493  2.045506
      ESP Fit Center  336 is at   3.958178 -1.920354  2.045506
      ESP Fit Center  337 is at   4.229671 -1.607034  2.045506
      ESP Fit Center  338 is at   4.401894 -1.229918  2.045506
      ESP Fit Center  339 is at   4.701741 -0.819556  1.714010
      ESP Fit Center  340 is at   4.648414 -0.397428  1.714010
      ESP Fit Center  341 is at   4.491783 -0.001823  1.714010
      ESP Fit Center  342 is at   4.241690  0.342401  1.714010
      ESP Fit Center  343 is at   3.913849  0.613614  1.714010
      ESP Fit Center  344 is at   3.528860  0.794776  1.714010
      ESP Fit Center  345 is at   3.110913  0.874504  1.714010
      ESP Fit Center  346 is at   1.922362 -2.127433  1.714010
      ESP Fit Center  347 is at   2.281609 -2.355419  1.714010
      ESP Fit Center  348 is at   2.686269 -2.486900  1.714010
      ESP Fit Center  349 is at   3.110913 -2.513617  1.714010
      ESP Fit Center  350 is at   3.528860 -2.433889  1.714010
      ESP Fit Center  351 is at   3.913849 -2.252727  1.714010
      ESP Fit Center  352 is at   4.241690 -1.981513  1.714010
      ESP Fit Center  353 is at   4.491783 -1.637290  1.714010
      ESP Fit Center  354 is at   4.648414 -1.241685  1.714010
      ESP Fit Center  355 is at   4.868402 -0.819556  1.339684
      ESP Fit Center  356 is at   4.821666 -0.404762  1.339684
      ESP Fit Center  357 is at   4.683801 -0.010766  1.339684
      ESP Fit Center  358 is at   4.461721  0.342673  1.339684
      ESP Fit Center  359 is at   4.166561  0.637833  1.339684
      ESP Fit Center  360 is at   3.813121  0.859913  1.339684
      ESP Fit Center  361 is at   2.195541 -2.499026  1.339684
      ESP Fit Center  362 is at   2.589537 -2.636891  1.339684
      ESP Fit Center  363 is at   3.004331 -2.683627  1.339684
      ESP Fit Center  364 is at   3.419126 -2.636891  1.339684
      ESP Fit Center  365 is at   3.813121 -2.499026  1.339684
      ESP Fit Center  366 is at   4.166561 -2.276946  1.339684
      ESP Fit Center  367 is at   4.461721 -1.981785  1.339684
      ESP Fit Center  368 is at   4.683801 -1.628346  1.339684
      ESP Fit Center  369 is at   4.821666 -1.234351  1.339684
      ESP Fit Center  370 is at   4.953594 -0.819556  0.938886
      ESP Fit Center  371 is at   4.908022 -0.400522  0.938886
      ESP Fit Center  372 is at   4.773435 -0.001082  0.938886
      ESP Fit Center  373 is at   4.556126  0.360087  0.938886
      ESP Fit Center  374 is at   4.266257  0.666098  0.938886
      ESP Fit Center  375 is at   3.917383  0.902641  0.938886
      ESP Fit Center  376 is at   2.688976 -2.743141  0.938886
      ESP Fit Center  377 is at   3.109862 -2.765961  0.938886
      ESP Fit Center  378 is at   3.525814 -2.697769  0.938886
      ESP Fit Center  379 is at   3.917383 -2.541754  0.938886
      ESP Fit Center  380 is at   4.266257 -2.305211  0.938886
      ESP Fit Center  381 is at   4.556126 -1.999200  0.938886
      ESP Fit Center  382 is at   4.773435 -1.638031  0.938886
      ESP Fit Center  383 is at   4.908022 -1.238590  0.938886
      ESP Fit Center  384 is at   4.953594 -0.819556  0.529135
      ESP Fit Center  385 is at   4.908022 -0.400522  0.529135
      ESP Fit Center  386 is at   4.773435 -0.001082  0.529135
      ESP Fit Center  387 is at   4.556126  0.360087  0.529135
      ESP Fit Center  388 is at   4.266257  0.666098  0.529135
      ESP Fit Center  389 is at   3.917383  0.902641  0.529135
      ESP Fit Center  390 is at   3.109862 -2.765961  0.529135
      ESP Fit Center  391 is at   3.525814 -2.697769  0.529135
      ESP Fit Center  392 is at   3.917383 -2.541754  0.529135
      ESP Fit Center  393 is at   4.266257 -2.305211  0.529135
      ESP Fit Center  394 is at   4.556126 -1.999200  0.529135
      ESP Fit Center  395 is at   4.773435 -1.638031  0.529135
      ESP Fit Center  396 is at   4.908022 -1.238590  0.529135
      ESP Fit Center  397 is at   4.868402 -0.819556  0.128337
      ESP Fit Center  398 is at   4.821666 -0.404762  0.128337
      ESP Fit Center  399 is at   4.683801 -0.010766  0.128337
      ESP Fit Center  400 is at   4.461721  0.342673  0.128337
      ESP Fit Center  401 is at   4.166561  0.637833  0.128337
      ESP Fit Center  402 is at   3.813121  0.859913  0.128337
      ESP Fit Center  403 is at   3.419126 -2.636891  0.128337
      ESP Fit Center  404 is at   3.813121 -2.499026  0.128337
      ESP Fit Center  405 is at   4.166561 -2.276946  0.128337
      ESP Fit Center  406 is at   4.461721 -1.981785  0.128337
      ESP Fit Center  407 is at   4.683801 -1.628346  0.128337
      ESP Fit Center  408 is at   4.821666 -1.234351  0.128337
      ESP Fit Center  409 is at   4.701741 -0.819556 -0.245990
      ESP Fit Center  410 is at   4.648414 -0.397428 -0.245990
      ESP Fit Center  411 is at   4.491783 -0.001823 -0.245990
      ESP Fit Center  412 is at   4.241690  0.342401 -0.245990
      ESP Fit Center  413 is at   3.913849  0.613614 -0.245990
      ESP Fit Center  414 is at   3.528860  0.794776 -0.245990
      ESP Fit Center  415 is at   3.528860 -2.433889 -0.245990
      ESP Fit Center  416 is at   3.913849 -2.252727 -0.245990
      ESP Fit Center  417 is at   4.241690 -1.981513 -0.245990
      ESP Fit Center  418 is at   4.491783 -1.637290 -0.245990
      ESP Fit Center  419 is at   4.648414 -1.241685 -0.245990
      ESP Fit Center  420 is at   4.460895 -0.819556 -0.577486
      ESP Fit Center  421 is at   4.401894 -0.409195 -0.577486
      ESP Fit Center  422 is at   4.229671 -0.032079 -0.577486
      ESP Fit Center  423 is at   3.958178  0.281241 -0.577486
      ESP Fit Center  424 is at   3.609410  0.505381 -0.577486
      ESP Fit Center  425 is at   3.958178 -1.920354 -0.577486
      ESP Fit Center  426 is at   4.229671 -1.607034 -0.577486
      ESP Fit Center  427 is at   4.401894 -1.229918 -0.577486
      ESP Fit Center  428 is at   4.156391 -0.819556 -0.851663
      ESP Fit Center  429 is at   4.078595 -0.403385 -0.851663
      ESP Fit Center  430 is at   3.855713 -0.043419 -0.851663
      ESP Fit Center  431 is at   3.517848  0.211725 -0.851663
      ESP Fit Center  432 is at   3.855713 -1.595694 -0.851663
      ESP Fit Center  433 is at   4.078595 -1.235728 -0.851663
      ESP Fit Center  434 is at   3.801535 -0.819556 -1.056539
      ESP Fit Center  435 is at   3.694730 -0.420954 -1.056539
      ESP Fit Center  436 is at   0.460718  2.582584  1.884754
      ESP Fit Center  437 is at   0.868225  2.582584  1.841924
      ESP Fit Center  438 is at   0.664471  2.935495  1.841924
      ESP Fit Center  439 is at   0.256964  2.935495  1.841924
      ESP Fit Center  440 is at   0.053211  2.582584  1.841924
      ESP Fit Center  441 is at   0.256964  2.229672  1.841924
      ESP Fit Center  442 is at   0.664471  2.229672  1.841924
      ESP Fit Center  443 is at   1.257922  2.582584  1.715304
      ESP Fit Center  444 is at   1.151117  2.981185  1.715304
      ESP Fit Center  445 is at   0.859320  3.272982  1.715304
      ESP Fit Center  446 is at   0.460718  3.379787  1.715304
      ESP Fit Center  447 is at   0.062116  3.272982  1.715304
      ESP Fit Center  448 is at  -0.229681  2.981185  1.715304
      ESP Fit Center  449 is at  -0.336486  2.582584  1.715304
      ESP Fit Center  450 is at  -0.229681  2.183982  1.715304
      ESP Fit Center  451 is at   0.062116  1.892185  1.715304
      ESP Fit Center  452 is at   0.460718  1.785380  1.715304
      ESP Fit Center  453 is at   1.534981  2.998755  1.510428
      ESP Fit Center  454 is at   1.312100  3.358721  1.510428
      ESP Fit Center  455 is at   0.974235  3.613865  1.510428
      ESP Fit Center  456 is at   0.567017  3.729728  1.510428
      ESP Fit Center  457 is at   0.145442  3.690664  1.510428
      ESP Fit Center  458 is at  -0.233553  3.501947  1.510428
      ESP Fit Center  459 is at  -0.518782  3.189065  1.510428
      ESP Fit Center  460 is at  -0.671725  2.794274  1.510428
      ESP Fit Center  461 is at   1.686057  3.370061  1.236250
      ESP Fit Center  462 is at   0.253427  4.024322  1.236250
      ESP Fit Center  463 is at  -0.144361  3.907521  1.236250
      ESP Fit Center  464 is at  -0.493129  3.683381  1.236250
      ESP Fit Center  465 is at  -0.764622  3.370061  1.236250
      ESP Fit Center  466 is at  -0.936845  2.992945  1.236250
      ESP Fit Center  467 is at  -0.262004  4.118446  0.904754
      ESP Fit Center  468 is at  -0.621252  3.890460  0.904754
      ESP Fit Center  469 is at  -0.912515  3.580296  0.904754
      ESP Fit Center  470 is at  -1.117494  3.207442  0.904754
      ESP Fit Center  471 is at  -0.348072  4.262053  0.530428
      ESP Fit Center  472 is at  -0.701511  4.039973  0.530428
      ESP Fit Center  473 is at  -0.996671  3.744813  0.530428
      ESP Fit Center  474 is at  -1.218752  3.391374  0.530428
      ESP Fit Center  475 is at  -1.356617  2.997378  0.530428
      ESP Fit Center  476 is at  -0.633183  4.195967  0.129630
      ESP Fit Center  477 is at  -0.954438  3.923091  0.129630
      ESP Fit Center  478 is at  -1.209522  3.587534  0.129630
      ESP Fit Center  479 is at  -1.386507  3.204986  0.129630
      ESP Fit Center  480 is at  -1.477118  2.793336  0.129630
      ESP Fit Center  481 is at  -0.633183  4.195967 -0.280121
      ESP Fit Center  482 is at  -0.954438  3.923091 -0.280121
      ESP Fit Center  483 is at  -1.209522  3.587534 -0.280121
      ESP Fit Center  484 is at  -1.386507  3.204986 -0.280121
      ESP Fit Center  485 is at  -1.477118  2.793336 -0.280121
      ESP Fit Center  486 is at  -0.701511  4.039973 -0.680919
      ESP Fit Center  487 is at  -0.996671  3.744813 -0.680919
      ESP Fit Center  488 is at  -1.218752  3.391374 -0.680919
      ESP Fit Center  489 is at  -1.356617  2.997378 -0.680919
      ESP Fit Center  490 is at  -1.403353  2.582584 -0.680919
      ESP Fit Center  491 is at  -1.356617  2.167789 -0.680919
      ESP Fit Center  492 is at  -0.621252  3.890460 -1.055246
      ESP Fit Center  493 is at  -0.912515  3.580296 -1.055246
      ESP Fit Center  494 is at  -1.117494  3.207442 -1.055246
      ESP Fit Center  495 is at  -1.223307  2.795325 -1.055246
      ESP Fit Center  496 is at  -1.223307  2.369842 -1.055246
      ESP Fit Center  497 is at  -0.493129  3.683381 -1.386742
      ESP Fit Center  498 is at  -0.764622  3.370061 -1.386742
      ESP Fit Center  499 is at  -0.936845  2.992945 -1.386742
      ESP Fit Center  500 is at  -0.995846  2.582584 -1.386742
      ESP Fit Center  501 is at  -0.936845  2.172222 -1.386742
      ESP Fit Center  502 is at  -0.764622  1.795106 -1.386742
      ESP Fit Center  503 is at  -0.233553  3.501947 -1.660919
      ESP Fit Center  504 is at  -0.518782  3.189065 -1.660919
      ESP Fit Center  505 is at  -0.671725  2.794274 -1.660919
      ESP Fit Center  506 is at  -0.671725  2.370893 -1.660919
      ESP Fit Center  507 is at  -0.518782  1.976103 -1.660919
      ESP Fit Center  508 is at   0.062116  3.272982 -1.865795
      ESP Fit Center  509 is at  -0.229681  2.981185 -1.865795
      ESP Fit Center  510 is at  -0.336486  2.582584 -1.865795
      ESP Fit Center  511 is at  -0.229681  2.183982 -1.865795
      ESP Fit Center  512 is at   0.062116  1.892185 -1.865795
      ESP Fit Center  513 is at   0.664471  2.935495 -1.992415
      ESP Fit Center  514 is at   0.256964  2.935495 -1.992415
      ESP Fit Center  515 is at   0.053211  2.582584 -1.992415
      ESP Fit Center  516 is at   0.256964  2.229672 -1.992415
      ESP Fit Center  517 is at   0.460718  2.582584 -2.035246
      ESP Fit Center  518 is at  -0.211744 -1.920872 -1.423808
      ESP Fit Center  519 is at  -0.105162  1.637260 -1.798134
      ESP Fit Center  520 is at  -0.529807  1.610543 -1.798134
      ESP Fit Center  521 is at  -0.934466  1.479062 -1.798134
      ESP Fit Center  522 is at  -0.529807 -1.724145 -1.798134
      ESP Fit Center  523 is at  -0.105162 -1.750861 -1.798134
      ESP Fit Center  524 is at   1.244820 -0.056801 -2.129630
      ESP Fit Center  525 is at   0.393335  1.268136 -2.129630
      ESP Fit Center  526 is at  -0.004453  1.384937 -2.129630
      ESP Fit Center  527 is at  -0.419034  1.384937 -2.129630
      ESP Fit Center  528 is at  -0.816822  1.268136 -2.129630
      ESP Fit Center  529 is at  -1.165590  1.043997 -2.129630
      ESP Fit Center  530 is at  -0.816822 -1.381738 -2.129630
      ESP Fit Center  531 is at  -0.419034 -1.498539 -2.129630
      ESP Fit Center  532 is at  -0.004453 -1.498539 -2.129630
      ESP Fit Center  533 is at   0.940315 -0.056801 -2.403808
      ESP Fit Center  534 is at   0.862519  0.359371 -2.403808
      ESP Fit Center  535 is at   0.639638  0.719336 -2.403808
      ESP Fit Center  536 is at   0.301773  0.974480 -2.403808
      ESP Fit Center  537 is at  -0.105445  1.090344 -2.403808
      ESP Fit Center  538 is at  -0.527020  1.051279 -2.403808
      ESP Fit Center  539 is at  -0.906014  0.862562 -2.403808
      ESP Fit Center  540 is at  -1.191244  0.549680 -2.403808
      ESP Fit Center  541 is at  -1.191244 -0.663282 -2.403808
      ESP Fit Center  542 is at  -0.906014 -0.976164 -2.403808
      ESP Fit Center  543 is at  -0.527020 -1.164881 -2.403808
      ESP Fit Center  544 is at  -0.105445 -1.203945 -2.403808
      ESP Fit Center  545 is at   0.301773 -1.088082 -2.403808
      ESP Fit Center  546 is at   0.639638 -0.832938 -2.403808
      ESP Fit Center  547 is at   0.862519 -0.472972 -2.403808
      ESP Fit Center  548 is at   0.585460 -0.056801 -2.608684
      ESP Fit Center  549 is at   0.478655  0.341801 -2.608684
      ESP Fit Center  550 is at   0.186858  0.633598 -2.608684
      ESP Fit Center  551 is at  -0.211744  0.740403 -2.608684
      ESP Fit Center  552 is at  -0.610346  0.633598 -2.608684
      ESP Fit Center  553 is at  -0.902142  0.341801 -2.608684
      ESP Fit Center  554 is at  -1.008948 -0.056801 -2.608684
      ESP Fit Center  555 is at  -0.902142 -0.455403 -2.608684
      ESP Fit Center  556 is at  -0.610346 -0.747200 -2.608684
      ESP Fit Center  557 is at  -0.211744 -0.854005 -2.608684
      ESP Fit Center  558 is at   0.186858 -0.747200 -2.608684
      ESP Fit Center  559 is at   0.478655 -0.455403 -2.608684
      ESP Fit Center  560 is at   0.195763 -0.056801 -2.735304
      ESP Fit Center  561 is at  -0.007990  0.296111 -2.735304
      ESP Fit Center  562 is at  -0.415497  0.296111 -2.735304
      ESP Fit Center  563 is at  -0.619251 -0.056801 -2.735304
      ESP Fit Center  564 is at  -0.415497 -0.409712 -2.735304
      ESP Fit Center  565 is at  -0.007990 -0.409712 -2.735304
      ESP Fit Center  566 is at  -0.211744 -0.056801 -2.778134
      ESP Fit Center  567 is at  -1.813749  0.986658  2.787627
      ESP Fit Center  568 is at  -1.406242  0.986658  2.744796
      ESP Fit Center  569 is at  -1.609996  1.339569  2.744796
      ESP Fit Center  570 is at  -2.017502  1.339569  2.744796
      ESP Fit Center  571 is at  -2.221256  0.986658  2.744796
      ESP Fit Center  572 is at  -2.017502  0.633746  2.744796
      ESP Fit Center  573 is at  -1.609996  0.633746  2.744796
      ESP Fit Center  574 is at  -1.016545  0.986658  2.618176
      ESP Fit Center  575 is at  -1.123350  1.385260  2.618176
      ESP Fit Center  576 is at  -1.415147  1.677057  2.618176
      ESP Fit Center  577 is at  -1.813749  1.783862  2.618176
      ESP Fit Center  578 is at  -2.212351  1.677057  2.618176
      ESP Fit Center  579 is at  -2.504148  1.385260  2.618176
      ESP Fit Center  580 is at  -2.610953  0.986658  2.618176
      ESP Fit Center  581 is at  -2.504148  0.588056  2.618176
      ESP Fit Center  582 is at  -2.212351  0.296259  2.618176
      ESP Fit Center  583 is at  -1.813749  0.189454  2.618176
      ESP Fit Center  584 is at  -1.415147  0.296259  2.618176
      ESP Fit Center  585 is at  -1.123350  0.588056  2.618176
      ESP Fit Center  586 is at  -0.661690  0.986658  2.413300
      ESP Fit Center  587 is at  -0.739486  1.402830  2.413300
      ESP Fit Center  588 is at  -0.962367  1.762795  2.413300
      ESP Fit Center  589 is at  -1.300232  2.017939  2.413300
      ESP Fit Center  590 is at  -1.707450  2.133802  2.413300
      ESP Fit Center  591 is at  -2.129025  2.094738  2.413300
      ESP Fit Center  592 is at  -2.508020  1.906021  2.413300
      ESP Fit Center  593 is at  -2.793249  1.593139  2.413300
      ESP Fit Center  594 is at  -2.946192  1.198348  2.413300
      ESP Fit Center  595 is at  -2.946192  0.774967  2.413300
      ESP Fit Center  596 is at  -2.793249  0.380177  2.413300
      ESP Fit Center  597 is at  -2.508020  0.067295  2.413300
      ESP Fit Center  598 is at  -0.739486  0.570486  2.413300
      ESP Fit Center  599 is at  -0.416186  1.397019  2.139123
      ESP Fit Center  600 is at  -0.588410  1.774136  2.139123
      ESP Fit Center  601 is at  -0.859903  2.087455  2.139123
      ESP Fit Center  602 is at  -1.208671  2.311595  2.139123
      ESP Fit Center  603 is at  -1.606458  2.428396  2.139123
      ESP Fit Center  604 is at  -2.021040  2.428396  2.139123
      ESP Fit Center  605 is at  -2.418828  2.311595  2.139123
      ESP Fit Center  606 is at  -2.767596  2.087455  2.139123
      ESP Fit Center  607 is at  -3.039089  1.774136  2.139123
      ESP Fit Center  608 is at  -3.211312  1.397019  2.139123
      ESP Fit Center  609 is at  -3.270313  0.986658  2.139123
      ESP Fit Center  610 is at  -3.211312  0.576296  2.139123
      ESP Fit Center  611 is at  -3.039089  0.199180  2.139123
      ESP Fit Center  612 is at  -0.326297  1.804391  1.807627
      ESP Fit Center  613 is at  -0.576391  2.148615  1.807627
      ESP Fit Center  614 is at  -0.904231  2.419828  1.807627
      ESP Fit Center  615 is at  -1.289221  2.600990  1.807627
      ESP Fit Center  616 is at  -1.707168  2.680718  1.807627
      ESP Fit Center  617 is at  -2.131812  2.654002  1.807627
      ESP Fit Center  618 is at  -2.536471  2.522520  1.807627
      ESP Fit Center  619 is at  -2.895719  2.294535  1.807627
      ESP Fit Center  620 is at  -3.186982  1.984370  1.807627
      ESP Fit Center  621 is at  -3.391961  1.611516  1.807627
      ESP Fit Center  622 is at  -3.497774  1.199400  1.807627
      ESP Fit Center  623 is at  -3.497774  0.773916  1.807627
      ESP Fit Center  624 is at  -3.391961  0.361800  1.807627
      ESP Fit Center  625 is at  -1.004959  2.666128  1.433300
      ESP Fit Center  626 is at  -1.398954  2.803992  1.433300
      ESP Fit Center  627 is at  -1.813749  2.850729  1.433300
      ESP Fit Center  628 is at  -2.228544  2.803992  1.433300
      ESP Fit Center  629 is at  -2.622539  2.666128  1.433300
      ESP Fit Center  630 is at  -2.975978  2.444047  1.433300
      ESP Fit Center  631 is at  -3.271138  2.148887  1.433300
      ESP Fit Center  632 is at  -3.493219  1.795448  1.433300
      ESP Fit Center  633 is at  -3.631084  1.401453  1.433300
      ESP Fit Center  634 is at  -3.677820  0.986658  1.433300
      ESP Fit Center  635 is at  -3.631084  0.571863  1.433300
      ESP Fit Center  636 is at  -1.292266  2.864870  1.032503
      ESP Fit Center  637 is at  -1.708218  2.933062  1.032503
      ESP Fit Center  638 is at  -2.129105  2.910242  1.032503
      ESP Fit Center  639 is at  -2.535246  2.797478  1.032503
      ESP Fit Center  640 is at  -2.907650  2.600041  1.032503
      ESP Fit Center  641 is at  -3.228905  2.327165  1.032503
      ESP Fit Center  642 is at  -3.483989  1.991608  1.032503
      ESP Fit Center  643 is at  -3.660974  1.609060  1.032503
      ESP Fit Center  644 is at  -3.751585  1.197410  1.032503
      ESP Fit Center  645 is at  -3.751585  0.775905  1.032503
      ESP Fit Center  646 is at  -1.708218  2.933062  0.622751
      ESP Fit Center  647 is at  -2.129105  2.910242  0.622751
      ESP Fit Center  648 is at  -2.535246  2.797478  0.622751
      ESP Fit Center  649 is at  -2.907650  2.600041  0.622751
      ESP Fit Center  650 is at  -3.228905  2.327165  0.622751
      ESP Fit Center  651 is at  -3.483989  1.991608  0.622751
      ESP Fit Center  652 is at  -3.660974  1.609060  0.622751
      ESP Fit Center  653 is at  -3.751585  1.197410  0.622751
      ESP Fit Center  654 is at  -1.813749  2.850729  0.221954
      ESP Fit Center  655 is at  -2.228544  2.803992  0.221954
      ESP Fit Center  656 is at  -2.622539  2.666128  0.221954
      ESP Fit Center  657 is at  -2.975978  2.444047  0.221954
      ESP Fit Center  658 is at  -3.271138  2.148887  0.221954
      ESP Fit Center  659 is at  -3.493219  1.795448  0.221954
      ESP Fit Center  660 is at  -3.631084  1.401453  0.221954
      ESP Fit Center  661 is at  -1.707168  2.680718 -0.152373
      ESP Fit Center  662 is at  -2.131812  2.654002 -0.152373
      ESP Fit Center  663 is at  -2.536471  2.522520 -0.152373
      ESP Fit Center  664 is at  -2.895719  2.294535 -0.152373
      ESP Fit Center  665 is at  -3.186982  1.984370 -0.152373
      ESP Fit Center  666 is at  -3.391961  1.611516 -0.152373
      ESP Fit Center  667 is at  -1.606458  2.428396 -0.483869
      ESP Fit Center  668 is at  -2.021040  2.428396 -0.483869
      ESP Fit Center  669 is at  -2.418828  2.311595 -0.483869
      ESP Fit Center  670 is at  -2.767596  2.087455 -0.483869
      ESP Fit Center  671 is at  -3.039089  1.774136 -0.483869
      ESP Fit Center  672 is at  -1.707450  2.133802 -0.758046
      ESP Fit Center  673 is at  -2.129025  2.094738 -0.758046
      ESP Fit Center  674 is at  -4.017974  0.239882  0.391478
      ESP Fit Center  675 is at  -4.190197 -0.137234  0.391478
      ESP Fit Center  676 is at  -4.249198 -0.547596  0.391478
      ESP Fit Center  677 is at  -4.190197 -0.957957  0.391478
      ESP Fit Center  678 is at  -4.017974 -1.335074  0.391478
      ESP Fit Center  679 is at  -3.746481 -1.648393  0.391478
      ESP Fit Center  680 is at  -3.874604  0.760281  0.059982
      ESP Fit Center  681 is at  -4.165868  0.450117  0.059982
      ESP Fit Center  682 is at  -4.370846  0.077262  0.059982
      ESP Fit Center  683 is at  -4.476660 -0.334854  0.059982
      ESP Fit Center  684 is at  -4.476660 -0.760338  0.059982
      ESP Fit Center  685 is at  -4.370846 -1.172454  0.059982
      ESP Fit Center  686 is at  -4.165868 -1.545308  0.059982
      ESP Fit Center  687 is at  -3.874604 -1.855473  0.059982
      ESP Fit Center  688 is at  -3.515357 -2.083458  0.059982
      ESP Fit Center  689 is at  -3.954864  0.909793 -0.314344
      ESP Fit Center  690 is at  -4.250024  0.614633 -0.314344
      ESP Fit Center  691 is at  -4.472104  0.261194 -0.314344
      ESP Fit Center  692 is at  -4.609969 -0.132801 -0.314344
      ESP Fit Center  693 is at  -4.656705 -0.547596 -0.314344
      ESP Fit Center  694 is at  -4.609969 -0.962391 -0.314344
      ESP Fit Center  695 is at  -4.472104 -1.356386 -0.314344
      ESP Fit Center  696 is at  -4.250024 -1.709825 -0.314344
      ESP Fit Center  697 is at  -3.954864 -2.004985 -0.314344
      ESP Fit Center  698 is at  -3.601425 -2.227066 -0.314344
      ESP Fit Center  699 is at  -3.207429 -2.364930 -0.314344
      ESP Fit Center  700 is at  -2.792635 -2.411667 -0.314344
      ESP Fit Center  701 is at  -3.514131  1.263224 -0.715142
      ESP Fit Center  702 is at  -3.886536  1.065788 -0.715142
      ESP Fit Center  703 is at  -4.207791  0.792911 -0.715142
      ESP Fit Center  704 is at  -4.462875  0.457354 -0.715142
      ESP Fit Center  705 is at  -4.639860  0.074807 -0.715142
      ESP Fit Center  706 is at  -4.730471 -0.336843 -0.715142
      ESP Fit Center  707 is at  -4.730471 -0.758348 -0.715142
      ESP Fit Center  708 is at  -4.639860 -1.169999 -0.715142
      ESP Fit Center  709 is at  -4.462875 -1.552546 -0.715142
      ESP Fit Center  710 is at  -4.207791 -1.888103 -0.715142
      ESP Fit Center  711 is at  -3.886536 -2.160979 -0.715142
      ESP Fit Center  712 is at  -3.514131 -2.358416 -0.715142
      ESP Fit Center  713 is at  -3.107990 -2.471180 -0.715142
      ESP Fit Center  714 is at  -2.687104 -2.494000 -0.715142
      ESP Fit Center  715 is at  -3.107990  1.375988 -1.124894
      ESP Fit Center  716 is at  -3.514131  1.263224 -1.124894
      ESP Fit Center  717 is at  -3.886536  1.065788 -1.124894
      ESP Fit Center  718 is at  -4.207791  0.792911 -1.124894
      ESP Fit Center  719 is at  -4.462875  0.457354 -1.124894
      ESP Fit Center  720 is at  -4.639860  0.074807 -1.124894
      ESP Fit Center  721 is at  -4.730471 -0.336843 -1.124894
      ESP Fit Center  722 is at  -4.730471 -0.758348 -1.124894
      ESP Fit Center  723 is at  -4.639860 -1.169999 -1.124894
      ESP Fit Center  724 is at  -4.462875 -1.552546 -1.124894
      ESP Fit Center  725 is at  -4.207791 -1.888103 -1.124894
      ESP Fit Center  726 is at  -3.886536 -2.160979 -1.124894
      ESP Fit Center  727 is at  -3.514131 -2.358416 -1.124894
      ESP Fit Center  728 is at  -3.107990 -2.471180 -1.124894
      ESP Fit Center  729 is at  -2.687104 -2.494000 -1.124894
      ESP Fit Center  730 is at  -2.271152 -2.425808 -1.124894
      ESP Fit Center  731 is at  -2.792635  1.316475 -1.525691
      ESP Fit Center  732 is at  -3.207429  1.269739 -1.525691
      ESP Fit Center  733 is at  -3.601425  1.131874 -1.525691
      ESP Fit Center  734 is at  -3.954864  0.909793 -1.525691
      ESP Fit Center  735 is at  -4.250024  0.614633 -1.525691
      ESP Fit Center  736 is at  -4.472104  0.261194 -1.525691
      ESP Fit Center  737 is at  -4.609969 -0.132801 -1.525691
      ESP Fit Center  738 is at  -4.656705 -0.547596 -1.525691
      ESP Fit Center  739 is at  -4.609969 -0.962391 -1.525691
      ESP Fit Center  740 is at  -4.472104 -1.356386 -1.525691
      ESP Fit Center  741 is at  -4.250024 -1.709825 -1.525691
      ESP Fit Center  742 is at  -3.954864 -2.004985 -1.525691
      ESP Fit Center  743 is at  -3.601425 -2.227066 -1.525691
      ESP Fit Center  744 is at  -3.207429 -2.364930 -1.525691
[...]
 5068 Fit      -0.359879
 5069 Fit      -0.362362
 5070 Fit      -0.366776
 5071 Fit      -0.373245
 5072 Fit      -0.369312
 5073 Fit      -0.366145
 5074 Fit      -0.365489
 5075 Fit      -0.367084
 5076 Fit      -0.370883
 5077 Fit      -0.377009
 5078 Fit      -0.373471
 5079 Fit      -0.372923
 5080 Fit      -0.375170
 5081 Fit      -0.378657
 5082 Fit      -0.374988
 5083 Fit      -0.373439
 5084 Fit      -0.373888
 5085 Fit      -0.376323
 5086 Fit      -0.380832
 5087 Fit      -0.387613
 5088 Fit      -0.376785
 5089 Fit      -0.371056
 5090 Fit      -0.367220
 5091 Fit      -0.365089
 5092 Fit      -0.364555
 5093 Fit      -0.365576
 5094 Fit      -0.368167
 5095 Fit      -0.372397
 5096 Fit      -0.378395
 5097 Fit      -0.386368
 5098 Fit      -0.378667
 5099 Fit      -0.371022
 5100 Fit      -0.365264
 5101 Fit      -0.361163
 5102 Fit      -0.358570
 5103 Fit      -0.357391
 5104 Fit      -0.357578
 5105 Fit      -0.359124
 5106 Fit      -0.362052
 5107 Fit      -0.366424
 5108 Fit      -0.372338
 5109 Fit      -0.379944
 5110 Fit      -0.389444
 5111 Fit      -0.382378
 5112 Fit      -0.373428
 5113 Fit      -0.366248
 5114 Fit      -0.360636
 5115 Fit      -0.356440
 5116 Fit      -0.353554
 5117 Fit      -0.351909
 5118 Fit      -0.351465
 5119 Fit      -0.352207
 5120 Fit      -0.354141
 5121 Fit      -0.357290
 5122 Fit      -0.361701
 5123 Fit      -0.367443
 5124 Fit      -0.374614
 5125 Fit      -0.383339
 5126 Fit      -0.393769
 5127 Fit      -0.373848
 5128 Fit      -0.366234
 5129 Fit      -0.360006
 5130 Fit      -0.355062
 5131 Fit      -0.351323
 5132 Fit      -0.348732
 5133 Fit      -0.347254
 5134 Fit      -0.346866
 5135 Fit      -0.347563
 5136 Fit      -0.349348
 5137 Fit      -0.352239
 5138 Fit      -0.356262
 5139 Fit      -0.361458
 5140 Fit      -0.367883
 5141 Fit      -0.375607
 5142 Fit      -0.384711
 5143 Fit      -0.395276
 5144 Fit      -0.371812
 5145 Fit      -0.364421
 5146 Fit      -0.358198
 5147 Fit      -0.353106
 5148 Fit      -0.349110
 5149 Fit      -0.346182
 5150 Fit      -0.344301
 5151 Fit      -0.343458
 5152 Fit      -0.343651
 5153 Fit      -0.344881
 5154 Fit      -0.347157
 5155 Fit      -0.350491
 5156 Fit      -0.354904
 5157 Fit      -0.360421
 5158 Fit      -0.367079
 5159 Fit      -0.374918
 5160 Fit      -0.383984
 5161 Fit      -0.394317
 5162 Fit      -0.370294
 5163 Fit      -0.363286
 5164 Fit      -0.357218
 5165 Fit      -0.352109
 5166 Fit      -0.347964
 5167 Fit      -0.344786
 5168 Fit      -0.342576
 5169 Fit      -0.341339
 5170 Fit      -0.341080
 5171 Fit      -0.341803
 5172 Fit      -0.343515
 5173 Fit      -0.346222
 5174 Fit      -0.349929
 5175 Fit      -0.354647
 5176 Fit      -0.360386
 5177 Fit      -0.367163
 5178 Fit      -0.374997
 5179 Fit      -0.383911
 5180 Fit      -0.372039
 5181 Fit      -0.364908
 5182 Fit      -0.358562
 5183 Fit      -0.353070
 5184 Fit      -0.348480
 5185 Fit      -0.344829
 5186 Fit      -0.342146
 5187 Fit      -0.340453
 5188 Fit      -0.339767
 5189 Fit      -0.340103
 5190 Fit      -0.341469
 5191 Fit      -0.343868
 5192 Fit      -0.347301
 5193 Fit      -0.351765
 5194 Fit      -0.357256
 5195 Fit      -0.363772
 5196 Fit      -0.371315
 5197 Fit      -0.379889
 5198 Fit      -0.389508
 5199 Fit      -0.372538
 5200 Fit      -0.365379
 5201 Fit      -0.358916
 5202 Fit      -0.353250
 5203 Fit      -0.348469
 5204 Fit      -0.344648
 5205 Fit      -0.341847
 5206 Fit      -0.340114
 5207 Fit      -0.339484
 5208 Fit      -0.339981
 5209 Fit      -0.341615
 5210 Fit      -0.344386
 5211 Fit      -0.348283
 5212 Fit      -0.353287
 5213 Fit      -0.359376
 5214 Fit      -0.366521
 5215 Fit      -0.374695
 5216 Fit      -0.383869
 5217 Fit      -0.374177
 5218 Fit      -0.366958
 5219 Fit      -0.360366
 5220 Fit      -0.354512
 5221 Fit      -0.349520
 5222 Fit      -0.345507
 5223 Fit      -0.342572
 5224 Fit      -0.340794
 5225 Fit      -0.340232
 5226 Fit      -0.340920
 5227 Fit      -0.342869
 5228 Fit      -0.346069
 5229 Fit      -0.350487
 5230 Fit      -0.356074
 5231 Fit      -0.362763
 5232 Fit      -0.370473
 5233 Fit      -0.379088
 5234 Fit      -0.388435
 5235 Fit      -0.375131
 5236 Fit      -0.367777
 5237 Fit      -0.361004
 5238 Fit      -0.354985
 5239 Fit      -0.349913
 5240 Fit      -0.345972
 5241 Fit      -0.343321
 5242 Fit      -0.342082
 5243 Fit      -0.342334
 5244 Fit      -0.344104
 5245 Fit      -0.347371
 5246 Fit      -0.352068
 5247 Fit      -0.358076
 5248 Fit      -0.365227
 5249 Fit      -0.373274
 5250 Fit      -0.381843
 5251 Fit      -0.375486
 5252 Fit      -0.368056
 5253 Fit      -0.360953
 5254 Fit      -0.354689
 5255 Fit      -0.349689
 5256 Fit      -0.346317
 5257 Fit      -0.344850
 5258 Fit      -0.345448
 5259 Fit      -0.348135
 5260 Fit      -0.352788
 5261 Fit      -0.359130
 5262 Fit      -0.366699
 5263 Fit      -0.374769
 5264 Fit      -0.382250
 5265 Fit      -0.377588
 5266 Fit      -0.375239
 5267 Fit      -0.369315
 5268 Fit      -0.362095
 5269 Fit      -0.355445
 5270 Fit      -0.350680
 5271 Fit      -0.348706
 5272 Fit      -0.349969
 5273 Fit      -0.354361
 5274 Fit      -0.361133
 5275 Fit      -0.368797
 5276 Fit      -0.375094
 5277 Fit      -0.367889
 5278 Fit      -0.364206
 5279 Fit      -0.357234
 5280 Fit      -0.353727
 5281 Fit      -0.356779
 5282 Fit      -0.363898
 5283 Fit      -0.360049
 5284 Fit      -0.371162
 5285 Fit      -0.372964
 5286 Fit      -0.377256
 5287 Fit      -0.376447
 5288 Fit      -0.370535
 5289 Fit      -0.366196
 5290 Fit      -0.367677
 5291 Fit      -0.376096
 5292 Fit      -0.380729
 5293 Fit      -0.384497
 5294 Fit      -0.386211
 5295 Fit      -0.383919
 5296 Fit      -0.377974
 5297 Fit      -0.370980
 5298 Fit      -0.365320
 5299 Fit      -0.362336
 5300 Fit      -0.362556
 5301 Fit      -0.365737
 5302 Fit      -0.370775
 5303 Fit      -0.380785
 5304 Fit      -0.384869
 5305 Fit      -0.388701
 5306 Fit      -0.392880
 5307 Fit      -0.387656
 5308 Fit      -0.379860
 5309 Fit      -0.372445
 5310 Fit      -0.366320
 5311 Fit      -0.361937
 5312 Fit      -0.359568
 5313 Fit      -0.359366
 5314 Fit      -0.361323
 5315 Fit      -0.365172
 5316 Fit      -0.370314
 5317 Fit      -0.375829
 5318 Fit      -0.387345
 5319 Fit      -0.390648
 5320 Fit      -0.393429
 5321 Fit      -0.382592
 5322 Fit      -0.374928
 5323 Fit      -0.368536
 5324 Fit      -0.363510
 5325 Fit      -0.359929
 5326 Fit      -0.357885
 5327 Fit      -0.357463
 5328 Fit      -0.358703
 5329 Fit      -0.361564
 5330 Fit      -0.365871
 5331 Fit      -0.371267
 5332 Fit      -0.377162
 5333 Fit      -0.382774
 5334 Fit      -0.396185
 5335 Fit      -0.382360
 5336 Fit      -0.374939
 5337 Fit      -0.368794
 5338 Fit      -0.363873
 5339 Fit      -0.360187
 5340 Fit      -0.357790
 5341 Fit      -0.356751
 5342 Fit      -0.357131
 5343 Fit      -0.358967
 5344 Fit      -0.362243
 5345 Fit      -0.366868
 5346 Fit      -0.372628
 5347 Fit      -0.379139
 5348 Fit      -0.385796
 5349 Fit      -0.391768
 5350 Fit      -0.407757
 5351 Fit      -0.379466
 5352 Fit      -0.372828
 5353 Fit      -0.367343
 5354 Fit      -0.362984
 5355 Fit      -0.359781
 5356 Fit      -0.357790
 5357 Fit      -0.357075
 5358 Fit      -0.357697
 5359 Fit      -0.359702
 5360 Fit      -0.363110
 5361 Fit      -0.367896
 5362 Fit      -0.373954
 5363 Fit      -0.381062
 5364 Fit      -0.388810
 5365 Fit      -0.396534
 5366 Fit      -0.403248
 5367 Fit      -0.378403
 5368 Fit      -0.372385
 5369 Fit      -0.367404
 5370 Fit      -0.363479
 5371 Fit      -0.360655
 5372 Fit      -0.358982
 5373 Fit      -0.358520
 5374 Fit      -0.359324
 5375 Fit      -0.361449
 5376 Fit      -0.364936
 5377 Fit      -0.369804
 5378 Fit      -0.376025
 5379 Fit      -0.383492
 5380 Fit      -0.391968
 5381 Fit      -0.401020
 5382 Fit      -0.409924
 5383 Fit      -0.382062
 5384 Fit      -0.375848
 5385 Fit      -0.370667
 5386 Fit      -0.366551
 5387 Fit      -0.363542
 5388 Fit      -0.361685
 5389 Fit      -0.361029
 5390 Fit      -0.361628
 5391 Fit      -0.363540
 5392 Fit      -0.366827
 5393 Fit      -0.371543
 5394 Fit      -0.377722
 5395 Fit      -0.385346
 5396 Fit      -0.394302
 5397 Fit      -0.404312
 5398 Fit      -0.386537
 5399 Fit      -0.379795
 5400 Fit      -0.374246
 5401 Fit      -0.369927
 5402 Fit      -0.366868
 5403 Fit      -0.365103
 5404 Fit      -0.364676
 5405 Fit      -0.365642
 5406 Fit      -0.368073
 5407 Fit      -0.372053
 5408 Fit      -0.377673
 5409 Fit      -0.385009
 5410 Fit      -0.394077
 5411 Fit      -0.404756
 5412 Fit      -0.385015
 5413 Fit      -0.379022
 5414 Fit      -0.374470
 5415 Fit      -0.371358
 5416 Fit      -0.369697
 5417 Fit      -0.369517
 5418 Fit      -0.370875
 5419 Fit      -0.373856
 5420 Fit      -0.378576
 5421 Fit      -0.385173
 5422 Fit      -0.393785
 5423 Fit      -0.404483
 5424 Fit      -0.417126
 5425 Fit      -0.394699
 5426 Fit      -0.387329
 5427 Fit      -0.381767
 5428 Fit      -0.377943
 5429 Fit      -0.375820
 5430 Fit      -0.375396
 5431 Fit      -0.376718
 5432 Fit      -0.379883
 5433 Fit      -0.385045
 5434 Fit      -0.392411
 5435 Fit      -0.402230
 5436 Fit      -0.414718
 5437 Fit      -0.393009
 5438 Fit      -0.387407
 5439 Fit      -0.383947
 5440 Fit      -0.382544
 5441 Fit      -0.383196
 5442 Fit      -0.385985
 5443 Fit      -0.391089
 5444 Fit      -0.398793
 5445 Fit      -0.409501
 5446 Fit      -0.399613
 5447 Fit      -0.394273
 5448 Fit      -0.391487
 5449 Fit      -0.391142
 5450 Fit      -0.393262
 5451 Fit      -0.398016
 5452 Fit      -0.405739
 5453 Fit      -0.416977
 5454 Fit      -0.401586
 5455 Fit      -0.401026
 5456 Fit      -0.403652
 5457 Fit      -0.409704
 5458 Fit      -0.419726
 5459 Fit      -0.361663
 5460 Fit      -0.354810
 5461 Fit      -0.352838
 5462 Fit      -0.362491
 5463 Fit      -0.373992
 5464 Fit      -0.374104
 5465 Fit      -0.364303
 5466 Fit      -0.353353
 5467 Fit      -0.347285
 5468 Fit      -0.346921
 5469 Fit      -0.354069
 5470 Fit      -0.367087
 5471 Fit      -0.381519
 5472 Fit      -0.391242
 5473 Fit      -0.380795
 5474 Fit      -0.370236
 5475 Fit      -0.361455
 5476 Fit      -0.357657
 5477 Fit      -0.349106
 5478 Fit      -0.343590
 5479 Fit      -0.343435
 5480 Fit      -0.349321
 5481 Fit      -0.360649
 5482 Fit      -0.375884
 5483 Fit      -0.388834
 5484 Fit      -0.379380
 5485 Fit      -0.372721
 5486 Fit      -0.366045
 5487 Fit      -0.356603
 5488 Fit      -0.346773
 5489 Fit      -0.341774
 5490 Fit      -0.342594
 5491 Fit      -0.349160
 5492 Fit      -0.360849
 5493 Fit      -0.376865
 5494 Fit      -0.401500
 5495 Fit      -0.392640
 5496 Fit      -0.283866
 5497 Fit      -0.272548
 5498 Fit      -0.263645
 5499 Fit      -0.256857
 5500 Fit      -0.251896
 5501 Fit      -0.314638
 5502 Fit      -0.297858
 5503 Fit      -0.277326
 5504 Fit      -0.267099
 5505 Fit      -0.259115
 5506 Fit      -0.253180
 5507 Fit      -0.249107
 5508 Fit      -0.246763
 5509 Fit      -0.246124
 5510 Fit      -0.305043
 5511 Fit      -0.289956
 5512 Fit      -0.272789
 5513 Fit      -0.263606
 5514 Fit      -0.256545
 5515 Fit      -0.251498
 5516 Fit      -0.248378
 5517 Fit      -0.247170
 5518 Fit      -0.247992
 5519 Fit      -0.251185
 5520 Fit      -0.313542
 5521 Fit      -0.297773
 5522 Fit      -0.284173
 5523 Fit      -0.270194
 5524 Fit      -0.261540
 5525 Fit      -0.255211
 5526 Fit      -0.251180
 5527 Fit      -0.249459
 5528 Fit      -0.250170
 5529 Fit      -0.253609
 5530 Fit      -0.260257
 5531 Fit      -0.270621
 5532 Fit      -0.327030
 5533 Fit      -0.309821
 5534 Fit      -0.294440
 5535 Fit      -0.281181
 5536 Fit      -0.269502
 5537 Fit      -0.261463
 5538 Fit      -0.256056
 5539 Fit      -0.253367
 5540 Fit      -0.253530
 5541 Fit      -0.256786
 5542 Fit      -0.263458
 5543 Fit      -0.273750
 5544 Fit      -0.287401
 5545 Fit      -0.303475
 5546 Fit      -0.320613
 5547 Fit      -0.337441
 5548 Fit      -0.352004
 5549 Fit      -0.338704
 5550 Fit      -0.323322
 5551 Fit      -0.307591
 5552 Fit      -0.292899
 5553 Fit      -0.280058
 5554 Fit      -0.270715
 5555 Fit      -0.263193
 5556 Fit      -0.259093
 5557 Fit      -0.258688
 5558 Fit      -0.262235
 5559 Fit      -0.269893
 5560 Fit      -0.281407
 5561 Fit      -0.295759
 5562 Fit      -0.311193
 5563 Fit      -0.325528
 5564 Fit      -0.336343
 5565 Fit      -0.341470
 5566 Fit      -0.340159
 5567 Fit      -0.333239
 5568 Fit      -0.322083
 5569 Fit      -0.308397
 5570 Fit      -0.294215
 5571 Fit      -0.281276
 5572 Fit      -0.273888
 5573 Fit      -0.267012
 5574 Fit      -0.265862
 5575 Fit      -0.270911
 5576 Fit      -0.281631
 5577 Fit      -0.295798
 5578 Fit      -0.309453
 5579 Fit      -0.318045
 5580 Fit      -0.318567
 5581 Fit      -0.311257
 5582 Fit      -0.298877
 5583 Fit      -0.285265
 5584 Fit      -0.279131
 5585 Fit      -0.275067
 5586 Fit      -0.283322
 5587 Fit      -0.296621
 5588 Fit      -0.300948
 5589 Fit      -0.291727
 5590 Fit      -0.286625
 5591 Fit      -0.316119
 5592 Fit      -0.309244
 5593 Fit      -0.301077
 5594 Fit      -0.309758
 5595 Fit      -0.325500
 5596 Fit      -0.333269
 5597 Fit      -0.326264
 5598 Fit      -0.304324
 5599 Fit      -0.291853
 5600 Fit      -0.288122
 5601 Fit      -0.293383
 5602 Fit      -0.306312
 5603 Fit      -0.323096
 5604 Fit      -0.323073
 5605 Fit      -0.300886
 5606 Fit      -0.287000
 5607 Fit      -0.279117
 5608 Fit      -0.277129
 5609 Fit      -0.280944
 5610 Fit      -0.290483
 5611 Fit      -0.305175
 5612 Fit      -0.320383
 5613 Fit      -0.298512
 5614 Fit      -0.283515
 5615 Fit      -0.273763
 5616 Fit      -0.268740
 5617 Fit      -0.268157
 5618 Fit      -0.272019
 5619 Fit      -0.280583
 5620 Fit      -0.294138
 5621 Fit      -0.319298
 5622 Fit      -0.296852
 5623 Fit      -0.280924
 5624 Fit      -0.270041
 5625 Fit      -0.263401
 5626 Fit      -0.260529
 5627 Fit      -0.261255
 5628 Fit      -0.265730
 5629 Fit      -0.274459
 5630 Fit      -0.295625
 5631 Fit      -0.279429
 5632 Fit      -0.267976
 5633 Fit      -0.260337
 5634 Fit      -0.255934
 5635 Fit      -0.254460
 5636 Fit      -0.255854
 5637 Fit      -0.260346
 5638 Fit      -0.294629
 5639 Fit      -0.277952
 5640 Fit      -0.266057
 5641 Fit      -0.257884
 5642 Fit      -0.252770
 5643 Fit      -0.250320
 5644 Fit      -0.250351
 5645 Fit      -0.252914
 5646 Fit      -0.293754
 5647 Fit      -0.277289
 5648 Fit      -0.265371
 5649 Fit      -0.256948
 5650 Fit      -0.251344
 5651 Fit      -0.248119
 5652 Fit      -0.246990
 5653 Fit      -0.247810
 5654 Fit      -0.292988
 5655 Fit      -0.276990
 5656 Fit      -0.265269
 5657 Fit      -0.256837
 5658 Fit      -0.251035
 5659 Fit      -0.247400
 5660 Fit      -0.245580
 5661 Fit      -0.245267
 5662 Fit      -0.292413
 5663 Fit      -0.276745
 5664 Fit      -0.265241
 5665 Fit      -0.256959
 5666 Fit      -0.251240
 5667 Fit      -0.247582
 5668 Fit      -0.245532
 5669 Fit      -0.292205
 5670 Fit      -0.277053
 5671 Fit      -0.265930
 5672 Fit      -0.257974
 5673 Fit      -0.252534
 5674 Fit      -0.312602
 5675 Fit      -0.262592
 5676 Fit      -0.258938
 5677 Fit      -0.261030
 5678 Fit      -0.254323
 5679 Fit      -0.247914
 5680 Fit      -0.245591
 5681 Fit      -0.247371
 5682 Fit      -0.253394
 5683 Fit      -0.263954
 5684 Fit      -0.247955
 5685 Fit      -0.240263
 5686 Fit      -0.235940
 5687 Fit      -0.234888
 5688 Fit      -0.237103
 5689 Fit      -0.242698
 5690 Fit      -0.251925
 5691 Fit      -0.265194
 5692 Fit      -0.243511
 5693 Fit      -0.235147
 5694 Fit      -0.229639
 5695 Fit      -0.226826
 5696 Fit      -0.226625
 5697 Fit      -0.229039
 5698 Fit      -0.234161
 5699 Fit      -0.242188
 5700 Fit      -0.253438
 5701 Fit      -0.268376
 5702 Fit      -0.239371
 5703 Fit      -0.230646
 5704 Fit      -0.224639
 5705 Fit      -0.221147
 5706 Fit      -0.220050
 5707 Fit      -0.221310
 5708 Fit      -0.224969
 5709 Fit      -0.231157
 5710 Fit      -0.240100
 5711 Fit      -0.252142
 5712 Fit      -0.267779
 5713 Fit      -0.236635
 5714 Fit      -0.227821
 5715 Fit      -0.221540
 5716 Fit      -0.217573
 5717 Fit      -0.215783
 5718 Fit      -0.216107
 5719 Fit      -0.218550
 5720 Fit      -0.223187
 5721 Fit      -0.230167
 5722 Fit      -0.239726
 5723 Fit      -0.252207
 5724 Fit      -0.268087
 5725 Fit      -0.234596
 5726 Fit      -0.225882
 5727 Fit      -0.219575
 5728 Fit      -0.215461
 5729 Fit      -0.213402
 5730 Fit      -0.213329
 5731 Fit      -0.215231
 5732 Fit      -0.219162
 5733 Fit      -0.225235
 5734 Fit      -0.233636
 5735 Fit      -0.244637
 5736 Fit      -0.258611
 5737 Fit      -0.232721
 5738 Fit      -0.224197
 5739 Fit      -0.218111
 5740 Fit      -0.214256
 5741 Fit      -0.212504
 5742 Fit      -0.212794
 5743 Fit      -0.215129
 5744 Fit      -0.219572
 5745 Fit      -0.226253
 5746 Fit      -0.235377
 5747 Fit      -0.247233
 5748 Fit      -0.262211
 5749 Fit      -0.231629
 5750 Fit      -0.223448
 5751 Fit      -0.217794
 5752 Fit      -0.214484
 5753 Fit      -0.213410
 5754 Fit      -0.214535
 5755 Fit      -0.217886
 5756 Fit      -0.223561
 5757 Fit      -0.231728
 5758 Fit      -0.242638
 5759 Fit      -0.256628
 5760 Fit      -0.274125
 5761 Fit      -0.232000
 5762 Fit      -0.224369
 5763 Fit      -0.219313
 5764 Fit      -0.216689
 5765 Fit      -0.216425
 5766 Fit      -0.218509
 5767 Fit      -0.223001
 5768 Fit      -0.230024
 5769 Fit      -0.239776
 5770 Fit      -0.252520
 5771 Fit      -0.268583
 5772 Fit      -0.242759
 5773 Fit      -0.232812
 5774 Fit      -0.225949
 5775 Fit      -0.222035
 5776 Fit      -0.220981
 5777 Fit      -0.222765
 5778 Fit      -0.227443
 5779 Fit      -0.235143
 5780 Fit      -0.246064
 5781 Fit      -0.260454
 5782 Fit      -0.244627
 5783 Fit      -0.235485
 5784 Fit      -0.229846
 5785 Fit      -0.227673
 5786 Fit      -0.228954
 5787 Fit      -0.233736
 5788 Fit      -0.242128
 5789 Fit      -0.254274
 5790 Fit      -0.270268
 5791 Fit      -0.247783
 5792 Fit      -0.239886
 5793 Fit      -0.236569
 5794 Fit      -0.237931
 5795 Fit      -0.244030
 5796 Fit      -0.254883
 5797 Fit      -0.270324
 5798 Fit      -0.252488
 5799 Fit      -0.247689
 5800 Fit      -0.250667
 5801 Fit      -0.261312
 5802 Fit      -0.261435
 5803 Fit      -0.269078
 -----------------------------------------------------------------
 Leave Link  602 at Wed Sep 16 21:34:22 2015, MaxMem=   33554432 cpu:       1.5

 Test job not archived.
 1\1\GINC-NID05431\SP\RHF\6-31G(d)\C3H4O7P1(3-)\NMIH\16-Sep-2015\0\\#HF
 /6-31G* Test Pop=MK iop(6/33=2) iop(6/42=6)\\15 atoms\\-3,1\C,0,-0.731
 ,0.054,-1.975\C,0,0.297,-0.09,-0.883\C,0,1.685,0.219,-1.447\P,0,-0.238
 ,-0.064,1.498\O,0,-1.627,0.855,-1.858\O,0,-0.651,-0.707,-3.077\O,0,2.6
 61,0.082,-0.411\O,0,0.,0.821,0.175\O,0,0.987,-0.837,1.8\O,0,-0.58,0.90
 4,2.738\O,0,-1.465,-1.076,1.254\H,0,0.279,-1.11,-0.5\H,0,1.703,1.239,-
 1.83\H,0,1.913,-0.476,-2.255\H,0,3.519,0.285,-0.808\\Version=AM64L-G09
 RevC.01\State=1-A\HF=-980.3732697\RMSD=5.346e-09\Dipole=3.88259,0.8464
 035,-2.8061157\Quadrupole=12.7944004,18.2009203,-30.9953207,2.0598758,
 -7.5135694,-3.233284\PG=C01 [X(C3H4O7P1)]\\@


 TERENCE, THIS IS STUPID STUFF:
 YOU EAT YOUR VICTUALS FAST ENOUGH;
 THERE CAN'T BE MUCH AMISS, 'TIS CLEAR
 TO SEE THE RATE YOU DRINK YOUR BEER.
 BUT OH, GOOD LORD, THE VERSE YOU MAKE,
 IT GIVES A CHAP THE BELLY-ACHE.
 THE COW, THE OLD COW, SHE IS DEAD;
 IT SLEEPS WELL, THE HORNED HEAD:
 WE POOR LADS, 'TIS OUR TURN NOW
 TO HEAR SUCH TUNES AS KILLED THE COW.
 PRETTY FRIENDSHIP 'TIS TO RHYME
 YOUR FRIENDS TO DEATH BEFORE THEIR TIME.
 MOPING, MELANCHOLY MAD:
 COME PIPE A TUNE TO DANCE TO, LAD.

     -- A. E. HOUSMAN
 Job cpu time:  0 days  0 hours  1 minutes  1.0 seconds.
 File lengths (MBytes):  RWF=     20 Int=      0 D2E=      0 Chk=      2 Scr=      1
 Normal termination of Gaussian 09 at Wed Sep 16 21:34:22 2015.
