 Entering Gaussian System, Link 0=g09
 Input=PI_representative.gau
 Output=PI_representative.log
 Initial command:
 /usr/common/software/g09/d1/g09/l1.exe "/global/cscratch1/sd/nmih/Gau-2897.inp" -scrdir="/global/cscratch1/sd/nmih/"
 Entering Link 1 = /usr/common/software/g09/d1/g09/l1.exe PID=      2898.
  
 Copyright (c) 1988,1990,1992,1993,1995,1998,2003,2009,2013,
            Gaussian, Inc.  All Rights Reserved.
  
 This is part of the Gaussian(R) 09 program.  It is based on
 the Gaussian(R) 03 system (copyright 2003, Gaussian, Inc.),
 the Gaussian(R) 98 system (copyright 1998, Gaussian, Inc.),
 the Gaussian(R) 94 system (copyright 1995, Gaussian, Inc.),
 the Gaussian 92(TM) system (copyright 1992, Gaussian, Inc.),
 the Gaussian 90(TM) system (copyright 1990, Gaussian, Inc.),
 the Gaussian 88(TM) system (copyright 1988, Gaussian, Inc.),
 the Gaussian 86(TM) system (copyright 1986, Carnegie Mellon
 University), and the Gaussian 82(TM) system (copyright 1983,
 Carnegie Mellon University). Gaussian is a federally registered
 trademark of Gaussian, Inc.
  
 This software contains proprietary and confidential information,
 including trade secrets, belonging to Gaussian, Inc.
  
 This software is provided under written license and may be
 used, copied, transmitted, or stored only in accord with that
 written license.
  
 The following legend is applicable only to US Government
 contracts under FAR:
  
                    RESTRICTED RIGHTS LEGEND
  
 Use, reproduction and disclosure by the US Government is
 subject to restrictions as set forth in subparagraphs (a)
 and (c) of the Commercial Computer Software - Restricted
 Rights clause in FAR 52.227-19.
  
 Gaussian, Inc.
 340 Quinnipiac St., Bldg. 40, Wallingford CT 06492
  
  
 ---------------------------------------------------------------
 Warning -- This program may not be used in any manner that
 competes with the business of Gaussian, Inc. or will provide
 assistance to any competitor of Gaussian, Inc.  The licensee
 of this program is prohibited from giving any competitor of
 Gaussian, Inc. access to this program.  By using this program,
 the user acknowledges that Gaussian, Inc. is engaged in the
 business of creating and licensing software in the field of
 computational chemistry and represents and warrants to the
 licensee that it is not a competitor of Gaussian, Inc. and that
 it will not use this program in any manner prohibited above.
 ---------------------------------------------------------------
  

 Cite this work as:
 Gaussian 09, Revision D.01,
 M. J. Frisch, G. W. Trucks, H. B. Schlegel, G. E. Scuseria, 
 M. A. Robb, J. R. Cheeseman, G. Scalmani, V. Barone, B. Mennucci, 
 G. A. Petersson, H. Nakatsuji, M. Caricato, X. Li, H. P. Hratchian, 
 A. F. Izmaylov, J. Bloino, G. Zheng, J. L. Sonnenberg, M. Hada, 
 M. Ehara, K. Toyota, R. Fukuda, J. Hasegawa, M. Ishida, T. Nakajima, 
 Y. Honda, O. Kitao, H. Nakai, T. Vreven, J. A. Montgomery, Jr., 
 J. E. Peralta, F. Ogliaro, M. Bearpark, J. J. Heyd, E. Brothers, 
 K. N. Kudin, V. N. Staroverov, T. Keith, R. Kobayashi, J. Normand, 
 K. Raghavachari, A. Rendell, J. C. Burant, S. S. Iyengar, J. Tomasi, 
 M. Cossi, N. Rega, J. M. Millam, M. Klene, J. E. Knox, J. B. Cross, 
 V. Bakken, C. Adamo, J. Jaramillo, R. Gomperts, R. E. Stratmann, 
 O. Yazyev, A. J. Austin, R. Cammi, C. Pomelli, J. W. Ochterski, 
 R. L. Martin, K. Morokuma, V. G. Zakrzewski, G. A. Voth, 
 P. Salvador, J. J. Dannenberg, S. Dapprich, A. D. Daniels, 
 O. Farkas, J. B. Foresman, J. V. Ortiz, J. Cioslowski, 
 and D. J. Fox, Gaussian, Inc., Wallingford CT, 2013.
 
 ******************************************
 Gaussian 09:  ES64L-G09RevD.01 24-Apr-2013
                 6-Aug-2016 
 ******************************************
 %chk=Pi_rep
 ------------------------------------------------------------
 #HF/6-31G* SCF=tight Test Pop=MK iop(6/33=2) iop(6/42=6) opt
 ------------------------------------------------------------
 1/18=20,19=15,38=1/1,3;
 2/9=110,12=2,17=6,18=5,40=1/2;
 3/5=1,6=6,7=1,11=9,16=1,25=1,30=1,71=1/1,2,3;
 4//1;
 5/5=2,32=2,38=5/2;
 6/7=2,8=2,9=2,10=2,15=8,20=1,28=1,33=2,42=6/1,2;
 7//1,2,3,16;
 1/18=20,19=15/3(2);
 2/9=110/2;
 99//99;
 2/9=110/2;
 3/5=1,6=6,7=1,11=9,16=1,25=1,30=1,71=1/1,2,3;
 4/5=5,16=3,69=1/1;
 5/5=2,32=2,38=5/2;
 7//1,2,3,16;
 1/18=20,19=15/3(-5);
 2/9=110/2;
 6/7=2,8=2,9=2,10=2,15=8,19=2,20=1,28=1,33=2,42=6/1,2;
 99/9=1/99;
 ---------------------
 Pi_representative.pdb
 ---------------------
 Symbolic Z-matrix:
 Charge = -2 Multiplicity = 1
 P                     13.652   -11.049    13.331 
 O                     14.707   -11.751    14.109 
 O                     14.151   -9.746     12.723 
 O                     12.382   -10.862    13.994 
 O                     13.404   -11.794    12.073 
 H                     12.73    -11.345    11.576 
 

 GradGradGradGradGradGradGradGradGradGradGradGradGradGradGradGradGradGrad
 Berny optimization.
 Initialization pass.
                           ----------------------------
                           !    Initial Parameters    !
                           ! (Angstroms and Degrees)  !
 --------------------------                            --------------------------
 ! Name  Definition              Value          Derivative Info.                !
 --------------------------------------------------------------------------------
 ! R1    R(1,2)                  1.487          estimate D2E/DX2                !
 ! R2    R(1,3)                  1.522          estimate D2E/DX2                !
 ! R3    R(1,4)                  1.4448         estimate D2E/DX2                !
 ! R4    R(1,5)                  1.4829         estimate D2E/DX2                !
 ! R5    R(5,6)                  0.9502         estimate D2E/DX2                !
 ! A1    A(2,1,3)              112.3686         estimate D2E/DX2                !
 ! A2    A(2,1,4)              116.4018         estimate D2E/DX2                !
 ! A3    A(2,1,5)              108.9853         estimate D2E/DX2                !
 ! A4    A(3,1,4)              111.1433         estimate D2E/DX2                !
 ! A5    A(3,1,5)               98.3977         estimate D2E/DX2                !
 ! A6    A(4,1,5)              107.8968         estimate D2E/DX2                !
 ! A7    A(1,5,6)              108.9621         estimate D2E/DX2                !
 ! D1    D(2,1,5,6)           -179.983          estimate D2E/DX2                !
 ! D2    D(3,1,5,6)            -62.7502         estimate D2E/DX2                !
 ! D3    D(4,1,5,6)             52.7696         estimate D2E/DX2                !
 --------------------------------------------------------------------------------
 Trust Radius=3.00D-01 FncErr=1.00D-07 GrdErr=1.00D-07
 Number of steps in this run=     25 maximum allowed number of steps=    100.
 GradGradGradGradGradGradGradGradGradGradGradGradGradGradGradGradGradGrad

                          Input orientation:                          
 ---------------------------------------------------------------------
 Center     Atomic      Atomic             Coordinates (Angstroms)
 Number     Number       Type             X           Y           Z
 ---------------------------------------------------------------------
      1         15           0       13.652000  -11.049000   13.331000
      2          8           0       14.707000  -11.751000   14.109000
      3          8           0       14.151000   -9.746000   12.723000
      4          8           0       12.382000  -10.862000   13.994000
      5          8           0       13.404000  -11.794000   12.073000
      6          1           0       12.730000  -11.345000   11.576000
 ---------------------------------------------------------------------
                    Distance matrix (angstroms):
                    1          2          3          4          5
     1  P    0.000000
     2  O    1.486981   0.000000
     3  O    1.521997   2.500031   0.000000
     4  O    1.444797   2.491821   2.447500   0.000000
     5  O    1.482934   2.417634   2.274822   2.367139   0.000000
     6  H    2.004426   3.238743   2.427272   2.490204   0.950203
                    6
     6  H    0.000000
 Stoichiometry    HO4P(2-)
 Framework group  C1[X(HO4P)]
 Deg. of freedom    12
 Full point group                 C1      NOp   1
 Largest Abelian subgroup         C1      NOp   1
 Largest concise Abelian subgroup C1      NOp   1
                         Standard orientation:                         
 ---------------------------------------------------------------------
 Center     Atomic      Atomic             Coordinates (Angstroms)
 Number     Number       Type             X           Y           Z
 ---------------------------------------------------------------------
      1         15           0       -0.093762    0.043013    0.032678
      2          8           0       -1.467764   -0.432230   -0.279373
      3          8           0        0.561305   -0.767116    1.142206
      4          8           0        0.058645    1.461124    0.263266
      5          8           0        0.812335   -0.338112   -1.077648
      6          1           0        1.690268   -0.034509   -0.877789
 ---------------------------------------------------------------------
 Rotational constants (GHZ):      5.5638994      5.2738170      4.9612401
 Standard basis: 6-31G(d) (6D, 7F)
 There are    81 symmetry adapted cartesian basis functions of A   symmetry.
 There are    81 symmetry adapted basis functions of A   symmetry.
    81 basis functions,   168 primitive gaussians,    81 cartesian basis functions
    25 alpha electrons       25 beta electrons
       nuclear repulsion energy       268.5461714034 Hartrees.
 NAtoms=    6 NActive=    6 NUniq=    6 SFac= 1.00D+00 NAtFMM=   60 NAOKFM=F Big=F
 Integral buffers will be    131072 words long.
 Raffenetti 1 integral format.
 Two-electron integral symmetry is turned on.
 One-electron integrals computed using PRISM.
 NBasis=    81 RedAO= T EigKep=  6.85D-03  NBF=    81
 NBsUse=    81 1.00D-06 EigRej= -1.00D+00 NBFU=    81
 ExpMin= 9.98D-02 ExpMax= 1.94D+04 ExpMxC= 2.91D+03 IAcc=2 IRadAn=         4 AccDes= 0.00D+00
 Harris functional with IExCor=  205 and IRadAn=       4 diagonalized for initial guess.
 HarFok:  IExCor=  205 AccDes= 0.00D+00 IRadAn=         4 IDoV= 1 UseB2=F ITyADJ=14
 ICtDFT=  3500011 ScaDFX=  1.000000  1.000000  1.000000  1.000000
 FoFCou: FMM=F IPFlag=           0 FMFlag=      100000 FMFlg1=           0
         NFxFlg=           0 DoJE=T BraDBF=F KetDBF=T FulRan=T
         wScrn=  0.000000 ICntrl=     500 IOpCl=  0 I1Cent=   200000004 NGrid=           0
         NMat0=    1 NMatS0=      1 NMatT0=    0 NMatD0=    1 NMtDS0=    0 NMtDT0=    0
 Petite list used in FoFCou.
 Keep R1 ints in memory in canonical form, NReq=6405574.
 Requested convergence on RMS density matrix=1.00D-08 within 128 cycles.
 Requested convergence on MAX density matrix=1.00D-06.
 Requested convergence on             energy=1.00D-06.
 No special actions if energy rises.
 SCF Done:  E(RHF) =  -640.652542792     A.U. after   12 cycles
            NFock= 12  Conv=0.77D-08     -V/T= 1.9999

 **********************************************************************

            Population analysis using the SCF density.

 **********************************************************************

 Orbital symmetries:
 BldTbl:  Degeneracy threshold= 1.00D-02
       Occupied  (A) (A) (A) (A) (A) (A) (A) (A) (A) (A) (A) (A)
                 (A) (A) (A) (A) (A) (A) (A) (A) (A) (A) (A) (A)
                 (A)
       Virtual   (A) (A) (A) (A) (A) (A) (A) (A) (A) (A) (A) (A)
                 (A) (A) (A) (A) (A) (A) (A) (A) (A) (A) (A) (A)
                 (A) (A) (A) (A) (A) (A) (A) (A) (A) (A) (A) (A)
                 (A) (A) (A) (A) (A) (A) (A) (A) (A) (A) (A) (A)
                 (A) (A) (A) (A) (A) (A) (A) (A)
 The electronic state is 1-A.
 Alpha  occ. eigenvalues --  -79.56037 -20.17042 -20.02945 -20.02916 -19.99559
 Alpha  occ. eigenvalues --   -7.09246  -4.99268  -4.99001  -4.98877  -1.03191
 Alpha  occ. eigenvalues --   -0.86342  -0.79844  -0.75925  -0.38891  -0.25367
 Alpha  occ. eigenvalues --   -0.19690  -0.17854  -0.10691  -0.08913  -0.03689
 Alpha  occ. eigenvalues --   -0.01840  -0.00618   0.02310   0.05564   0.07537
 Alpha virt. eigenvalues --    0.57878   0.73183   0.76844   0.78639   0.82338
 Alpha virt. eigenvalues --    1.03898   1.06915   1.09838   1.10101   1.35226
 Alpha virt. eigenvalues --    1.44429   1.44685   1.49015   1.52097   1.57288
 Alpha virt. eigenvalues --    1.57937   1.61195   1.66280   1.76938   1.79288
 Alpha virt. eigenvalues --    1.80308   1.81973   1.83472   1.91568   1.93577
 Alpha virt. eigenvalues --    2.00852   2.04436   2.08074   2.11272   2.13594
 Alpha virt. eigenvalues --    2.21002   2.43295   2.49556   2.56492   2.58659
 Alpha virt. eigenvalues --    2.60307   2.61142   2.61689   2.63973   2.65476
 Alpha virt. eigenvalues --    2.74905   2.95427   2.97931   2.99439   3.08617
 Alpha virt. eigenvalues --    3.17931   3.27119   3.42259   3.60162   3.69622
 Alpha virt. eigenvalues --    3.70995   4.30962   4.49537   4.61531   4.70356
 Alpha virt. eigenvalues --    4.83133
          Condensed to atoms (all electrons):
               1          2          3          4          5          6
     1  P   11.852981   0.564568   0.558641   0.582944   0.278628  -0.010719
     2  O    0.564568   8.510626  -0.054742  -0.049477  -0.043607   0.001731
     3  O    0.558641  -0.054742   8.649643  -0.061502  -0.092722   0.003110
     4  O    0.582944  -0.049477  -0.061502   8.494246  -0.058566   0.000171
     5  O    0.278628  -0.043607  -0.092722  -0.058566   8.394426   0.264240
     6  H   -0.010719   0.001731   0.003110   0.000171   0.264240   0.332683
 Mulliken charges:
               1
     1  P    1.172957
     2  O   -0.929098
     3  O   -1.002428
     4  O   -0.907816
     5  O   -0.742399
     6  H    0.408785
 Sum of Mulliken charges =  -2.00000
 Mulliken charges with hydrogens summed into heavy atoms:
               1
     1  P    1.172957
     2  O   -0.929098
     3  O   -1.002428
     4  O   -0.907816
     5  O   -0.333614
 DipInt: DoE/N= T F RetVal/Mat= T F Init=T NMatP=  1 IDeriv=0 Min/MaxMlt=  0  4
 Entering OneElI...
 OneElI was handed    33535960 working-precision words.
 Multipole integrals L=0 to 4 MinM= 0 MaxM= 0.
 Requested accuracy = 0.1000D-12
 ShPair: Thresh= 1.00D-13 NBox=     0 BxSize= 0.00D+00 RnKept= 6.12D+00
         NSMCal=                  276 NSMKep=                 270
 PrsmSu:  NPrtUS=   1 ThrOK=F IAlg=1 NPAlg=1 LenDen=           0.
 Prism:   IPart=     0 DynPar=F LinDyn=F Incr=           2.
 PRISM was handed    33498991 working-precision words and   270 shell-pairs
 IPart=  0 NShTot=         270 NBatch=          31 AvBLen=         8.7
 PrSmSu:  NxtVal=              3.
 Electronic moments (au):
        -50.00000000          1.32426466          0.13172917         -1.25525948
       -133.18213520       -124.12518255       -111.98102675         -0.16253245
         -3.71356014          0.68317450        133.97730055       -154.27320130
        -17.19635174        -15.69687003         84.46847006         65.25153899
        -98.97971492         80.69240011        -65.87541486         21.32449639
      -1077.22178261       -972.78701527       -720.00147582       -117.87327751
        -39.81138808         -2.28991571        -37.62248039         14.35660756
         81.98180147       -217.15206001       -302.02385409       -250.00128067
        -24.95853541        -47.19023776         93.55033460
 Electronic spatial extent (au):  <R**2>=            369.2883
 DipInt: DoE/N= F T RetVal/Mat= T F Init=T NMatP=  1 IDeriv=0 Min/MaxMlt=  0  4
 Nuclear    moments (au):
         48.00000000          0.00000000          0.00000000          0.00000000
        100.17071623         86.50864983         77.46737835          0.00000000
          0.00000000          0.00000000        -99.70577929        137.59293182
          8.13184084         14.79717608        -75.71977106        -68.30166602
         93.27814097        -71.75741064         57.16031091        -18.59069706
        632.14981641        505.20297118        319.92027167        105.00156824
         -2.25997094          1.69835628         37.72878989        -29.58927281
        -69.47308826         68.46768341        165.37008707        108.46400288
         24.14683866         39.43499261        -84.76842193
 Total      moments (au):
         -2.00000000          1.32426466          0.13172917         -1.25525948
        -33.01141897        -37.61653272        -34.51364839         -0.16253245
         -3.71356014          0.68317450         34.27152127        -16.68026948
         -9.06451090         -0.89969395          8.74869900         -3.05012703
         -5.70157395          8.93498947         -8.71510395          2.73379932
       -445.07196620       -467.58404409       -400.08120415        -12.87170928
        -42.07135901         -0.59155944          0.10630950        -15.23266525
         12.50871321       -148.68437659       -136.65376703       -141.53727779
         -0.81169676         -7.75524515          8.78191267
 Traceless Quadrup. (au):
          2.03578106         -2.56933269          0.53355163         -0.16253245
         -3.71356014          0.68317450
 Charge=             -2.0000 electrons
 Dipole moment (field-independent basis, Debye):
    X=              3.3659    Y=              0.3348    Z=             -3.1906  Tot=              4.6499
 Quadrupole moment (field-independent basis, Debye-Ang):
   XX=            -44.4015   YY=            -50.5955   ZZ=            -46.4220
   XY=             -0.2186   XZ=             -4.9949   YZ=              0.9189
 Traceless Quadrupole moment (field-independent basis, Debye-Ang):
   XX=              2.7382   YY=             -3.4558   ZZ=              0.7176
   XY=             -0.2186   XZ=             -4.9949   YZ=              0.9189
 Octapole moment (field-independent basis, Debye-Ang**2):
  XXX=             24.3931  YYY=            -11.8724  ZZZ=             -6.4518  XYY=             -0.6404
  XXY=              6.2270  XXZ=             -2.1710  XZZ=             -4.0582  YZZ=              6.3596
  YYZ=             -6.2031  XYZ=              1.9458
 Hexadecapole moment (field-independent basis, Debye-Ang**3):
 XXXX=           -167.6354 YYYY=           -176.1146 ZZZZ=           -150.6898 XXXY=             -4.8481
 XXXZ=            -15.8461 YYYX=             -0.2228 YYYZ=              0.0400 ZZZX=             -5.7374
 ZZZY=              4.7114 XXYY=            -56.0017 XXZZ=            -51.4704 YYZZ=            -53.3097
 XXYZ=             -0.3057 YYXZ=             -2.9210 ZZXY=              3.3077
 N-N= 2.685461714034D+02 E-N=-2.086274043844D+03  KE= 6.407232901617D+02
 Entering OneElI...
 OneElI was handed    33539050 working-precision words.
 Calculate electrostatic properties
    NBasis =    81  MinDer = 0  MaxDer = 0
    NGrid  =     6  NMatD  =   1
 Requested accuracy = 0.1000D-12
 ShPair: Thresh= 1.00D-13 NBox=     0 BxSize= 0.00D+00 RnKept= 6.12D+00
         NSMCal=                  276 NSMKep=                 266
 PrsmSu:  NPrtUS=   1 ThrOK=F IAlg=1 NPAlg=1 LenDen=           0.
 Prism:   IPart=     0 DynPar=F LinDyn=F Incr=          15.
 PRISM was handed    33502696 working-precision words and   266 shell-pairs
 IPart=  0 NShTot=        1596 NBatch=         266 AvBLen=         6.0
 PrSmSu:  NxtVal=             16.
 --------------------------------------------------------
       Center         ----      EFG at Nuclei      ----
                      3XX-RR        3YY-RR        3ZZ-RR
 --------------------------------------------------------
     1   Atom        0.082309      0.361793     -0.444101
     2   Atom       -0.670721      0.357847      0.312874
     3   Atom        0.052744      0.062294     -0.115038
     4   Atom        0.305220     -0.601278      0.296058
     5   Atom       -1.605840      0.954629      0.651210
     6   Atom       -0.423794      0.201892      0.221902
 --------------------------------------------------------
                        XY            XZ            YZ
 --------------------------------------------------------
     1   Atom        0.146749      0.364215     -0.066969
     2   Atom       -0.408242     -0.098157     -0.103007
     3   Atom        0.339418     -0.440877      0.514104
     4   Atom       -0.177280      0.026779     -0.212072
     5   Atom       -0.543183      0.155317     -0.432927
     6   Atom       -0.229146     -0.132508     -0.068849
 --------------------------------------------------------


 ---------------------------------------------------------------------------------
              Nuclear Quadrupole Coupling Constant in Principal Axis System
 ---------------------------------------------------------------------------------

       Atom             a.u.   MegaHertz   Gauss  10(-4) cm-1        Axes


 ---------------------------------------------------------------------------------

 No NMR shielding tensors so no spin-rotation constants.
 Leave Link  601 at Sat Aug  6 13:52:12 2016, MaxMem=    33554432 cpu:         0.1
 FitSet:  NAtFit=     6 NAtPot=     6 NAtFrz=     0 MDM=    10 TotChg=  -2.00000
 Merz-Kollman atomic radii used.
 Atom Element Radius
    1    15    1.80
    2     8    1.40
    3     8    1.40
    4     8    1.40
    5     8    1.40
    6     1    1.20
 Generate VDW surfaces: Layer= 4 Dens= 6 Start= 1.400 Inc= 0.200

 **********************************************************************

            Electrostatic Properties Using The SCF Density

 **********************************************************************

       Atomic Center    1 is at  -0.093762  0.043013  0.032678
       Atomic Center    2 is at  -1.467764 -0.432230 -0.279373
       Atomic Center    3 is at   0.561305 -0.767116  1.142206
       Atomic Center    4 is at   0.058645  1.461124  0.263266
       Atomic Center    5 is at   0.812335 -0.338112 -1.077648
       Atomic Center    6 is at   1.690268 -0.034509 -0.877789
      ESP Fit Center    7 is at  -0.301151  0.402221  2.518309
      ESP Fit Center    8 is at   0.315359  0.751632  2.416138
      ESP Fit Center    9 is at  -0.093762  0.861255  2.416138
      ESP Fit Center   10 is at  -0.502884  0.751632  2.416138
      ESP Fit Center   11 is at  -0.802381  0.452134  2.416138
      ESP Fit Center   12 is at  -0.912005  0.043013  2.416138
      ESP Fit Center   13 is at   0.505931  1.081713  2.248952
      ESP Fit Center   14 is at   0.114509  1.224179  2.248952
      ESP Fit Center   15 is at  -0.302034  1.224179  2.248952
      ESP Fit Center   16 is at  -0.693456  1.081713  2.248952
      ESP Fit Center   17 is at  -1.012546  0.813964  2.248952
      ESP Fit Center   18 is at  -1.220818  0.453227  2.248952
      ESP Fit Center   19 is at  -1.293150  0.043013  2.248952
      ESP Fit Center   20 is at  -1.220818 -0.367202  2.248952
      ESP Fit Center   21 is at   0.962704  1.174212  2.021313
      ESP Fit Center   22 is at  -0.986357  1.307532  2.021313
      ESP Fit Center   23 is at  -1.294421  1.019821  2.021313
      ESP Fit Center   24 is at  -1.513437  0.659664  2.021313
      ESP Fit Center   25 is at  -1.627162  0.253774  2.021313
      ESP Fit Center   26 is at  -1.627162 -0.167748  2.021313
      ESP Fit Center   27 is at  -1.513437 -0.573639  2.021313
      ESP Fit Center   28 is at  -1.294421 -0.933795  2.021313
      ESP Fit Center   29 is at   1.563054  0.875097  1.739428
      ESP Fit Center   30 is at  -1.366071  1.391581  1.739428
      ESP Fit Center   31 is at  -1.642777  1.061816  1.739428
      ESP Fit Center   32 is at  -1.835975  0.677126  1.739428
      ESP Fit Center   33 is at  -1.935250  0.258252  1.739428
      ESP Fit Center   34 is at  -1.935250 -0.172226  1.739428
      ESP Fit Center   35 is at  -1.835975 -0.591101  1.739428
      ESP Fit Center   36 is at  -1.642777 -0.975790  1.739428
      ESP Fit Center   37 is at  -1.366071 -1.305556  1.739428
      ESP Fit Center   38 is at   1.844926  0.874969  1.410988
      ESP Fit Center   39 is at   1.637769  1.248194  1.410988
      ESP Fit Center   40 is at  -1.694484  1.417187  1.410988
      ESP Fit Center   41 is at  -1.938336  1.066835  1.410988
      ESP Fit Center   42 is at  -2.106671  0.674567  1.410988
      ESP Fit Center   43 is at  -2.192598  0.256443  1.410988
      ESP Fit Center   44 is at  -1.385097 -1.625255  1.410988
      ESP Fit Center   45 is at   2.174693  0.467060  1.044951
      ESP Fit Center   46 is at   2.058149  0.876668  1.044951
      ESP Fit Center   47 is at   1.868325  1.257886  1.044951
      ESP Fit Center   48 is at  -1.799209  1.597733  1.044951
      ESP Fit Center   49 is at  -2.055850  1.257886  1.044951
      ESP Fit Center   50 is at  -2.245674  0.876668  1.044951
      ESP Fit Center   51 is at  -1.122414 -2.022799  1.044951
      ESP Fit Center   52 is at   2.312013  0.467216  0.651302
      ESP Fit Center   53 is at   2.201802  0.878530  0.651302
      ESP Fit Center   54 is at   2.021841  1.264457  0.651302
      ESP Fit Center   55 is at  -1.965124  1.613271  0.651302
      ESP Fit Center   56 is at  -2.209366  1.264457  0.651302
      ESP Fit Center   57 is at  -0.929279 -2.252552  0.651302
      ESP Fit Center   58 is at  -0.517965 -2.362763  0.651302
      ESP Fit Center   59 is at   2.098719  1.267806  0.240778
      ESP Fit Center   60 is at  -1.906878  1.780743  0.240778
      ESP Fit Center   61 is at  -2.174476  1.449329  0.240778
      ESP Fit Center   62 is at  -0.829155 -2.358298  0.240778
      ESP Fit Center   63 is at  -0.412754 -2.448039  0.240778
      ESP Fit Center   64 is at   0.012824 -2.466117  0.240778
      ESP Fit Center   65 is at  -1.906878  1.780743 -0.175422
      ESP Fit Center   66 is at  -2.174476  1.449329 -0.175422
      ESP Fit Center   67 is at  -0.829155 -2.358298 -0.175422
      ESP Fit Center   68 is at  -0.412754 -2.448039 -0.175422
      ESP Fit Center   69 is at   0.012824 -2.466117 -0.175422
      ESP Fit Center   70 is at   0.435336 -2.412013 -0.175422
      ESP Fit Center   71 is at   0.842627 -2.287281 -0.175422
      ESP Fit Center   72 is at   1.222979 -2.095512 -0.175422
      ESP Fit Center   73 is at  -1.664021  1.914374 -0.585945
      ESP Fit Center   74 is at  -1.965124  1.613271 -0.585945
      ESP Fit Center   75 is at  -0.517965 -2.362763 -0.585945
      ESP Fit Center   76 is at  -0.093762 -2.399876 -0.585945
      ESP Fit Center   77 is at   0.330441 -2.362763 -0.585945
      ESP Fit Center   78 is at   0.741755 -2.252552 -0.585945
      ESP Fit Center   79 is at  -1.484492  1.884636 -0.979594
      ESP Fit Center   80 is at  -1.799209  1.597733 -0.979594
      ESP Fit Center   81 is at  -0.725308 -2.176639 -0.979594
      ESP Fit Center   82 is at  -0.306694 -2.254892 -0.979594
      ESP Fit Center   83 is at   0.119170 -2.254892 -0.979594
      ESP Fit Center   84 is at   1.359723  1.572079 -1.345631
      ESP Fit Center   85 is at  -1.022844  1.937074 -1.345631
      ESP Fit Center   86 is at  -1.385097  1.711280 -1.345631
      ESP Fit Center   87 is at  -1.694484  1.417187 -1.345631
      ESP Fit Center   88 is at  -0.622554 -1.999301 -1.345631
      ESP Fit Center   89 is at  -0.200615 -2.063939 -1.345631
      ESP Fit Center   90 is at   1.013384  1.530168 -1.674071
      ESP Fit Center   91 is at   0.640579  1.745408 -1.674071
      ESP Fit Center   92 is at   0.228186  1.868870 -1.674071
      ESP Fit Center   93 is at  -0.201564  1.893900 -1.674071
      ESP Fit Center   94 is at  -0.625502  1.819148 -1.674071
      ESP Fit Center   95 is at  -1.020774  1.648645 -1.674071
      ESP Fit Center   96 is at  -1.366071  1.391581 -1.674071
      ESP Fit Center   97 is at  -1.642777  1.061816 -1.674071
      ESP Fit Center   98 is at  -0.625502 -1.733123 -1.674071
      ESP Fit Center   99 is at   0.618334  1.417296 -1.955956
      ESP Fit Center  100 is at   0.221150  1.558455 -1.955956
      ESP Fit Center  101 is at  -0.199389  1.587220 -1.955956
      ESP Fit Center  102 is at  -0.612094  1.501459 -1.955956
      ESP Fit Center  103 is at  -0.986357  1.307532 -1.955956
      ESP Fit Center  104 is at  -1.294421  1.019821 -1.955956
      ESP Fit Center  105 is at  -1.513437  0.659664 -1.955956
      ESP Fit Center  106 is at  -0.612094 -1.415434 -1.955956
      ESP Fit Center  107 is at   0.114509  1.224179 -2.183595
      ESP Fit Center  108 is at  -0.302034  1.224179 -2.183595
      ESP Fit Center  109 is at  -0.693456  1.081713 -2.183595
      ESP Fit Center  110 is at  -1.012546  0.813964 -2.183595
      ESP Fit Center  111 is at  -1.220818  0.453227 -2.183595
      ESP Fit Center  112 is at  -1.293150  0.043013 -2.183595
      ESP Fit Center  113 is at  -1.012546 -0.727939 -2.183595
      ESP Fit Center  114 is at  -0.693456 -0.995687 -2.183595
      ESP Fit Center  115 is at  -0.093762  0.861255 -2.350781
      ESP Fit Center  116 is at  -0.502884  0.751632 -2.350781
      ESP Fit Center  117 is at  -0.802381  0.452134 -2.350781
      ESP Fit Center  118 is at  -0.912005  0.043013 -2.350781
      ESP Fit Center  119 is at  -0.802381 -0.366109 -2.350781
      ESP Fit Center  120 is at  -2.158163 -0.033629  1.511177
      ESP Fit Center  121 is at  -2.264968 -0.432230  1.511177
      ESP Fit Center  122 is at  -2.158163 -0.830832  1.511177
      ESP Fit Center  123 is at  -1.866366 -1.122629  1.511177
      ESP Fit Center  124 is at  -2.447265  0.174251  1.306301
      ESP Fit Center  125 is at  -2.600207 -0.220540  1.306301
      ESP Fit Center  126 is at  -2.600207 -0.643921  1.306301
      ESP Fit Center  127 is at  -2.447265 -1.038711  1.306301
      ESP Fit Center  128 is at  -2.162035 -1.351593  1.306301
      ESP Fit Center  129 is at  -1.783040 -1.540310  1.306301
      ESP Fit Center  130 is at  -2.421611  0.668567  1.032123
      ESP Fit Center  131 is at  -2.693104  0.355247  1.032123
      ESP Fit Center  132 is at  -2.865327 -0.021869  1.032123
      ESP Fit Center  133 is at  -2.924328 -0.432230  1.032123
      ESP Fit Center  134 is at  -2.865327 -0.842592  1.032123
      ESP Fit Center  135 is at  -2.693104 -1.219708  1.032123
      ESP Fit Center  136 is at  -2.421611 -1.533028  1.032123
      ESP Fit Center  137 is at  -2.072843 -1.757168  1.032123
      ESP Fit Center  138 is at  -1.675055 -1.873969  1.032123
      ESP Fit Center  139 is at  -2.549734  0.875646  0.700627
      ESP Fit Center  140 is at  -2.840998  0.565482  0.700627
      ESP Fit Center  141 is at  -3.045976  0.192628  0.700627
      ESP Fit Center  142 is at  -3.151789 -0.219489  0.700627
      ESP Fit Center  143 is at  -3.151789 -0.644972  0.700627
      ESP Fit Center  144 is at  -3.045976 -1.057089  0.700627
      ESP Fit Center  145 is at  -2.840998 -1.429943  0.700627
      ESP Fit Center  146 is at  -2.549734 -1.740107  0.700627
      ESP Fit Center  147 is at  -2.190486 -1.968093  0.700627
      ESP Fit Center  148 is at  -1.785827 -2.099574  0.700627
      ESP Fit Center  149 is at  -1.361183 -2.126291  0.700627
      ESP Fit Center  150 is at  -2.629993  1.025159  0.326301
      ESP Fit Center  151 is at  -2.925153  0.729999  0.326301
      ESP Fit Center  152 is at  -3.147234  0.376560  0.326301
      ESP Fit Center  153 is at  -3.285099 -0.017436  0.326301
      ESP Fit Center  154 is at  -3.331835 -0.432230  0.326301
      ESP Fit Center  155 is at  -3.285099 -0.847025  0.326301
      ESP Fit Center  156 is at  -3.147234 -1.241020  0.326301
      ESP Fit Center  157 is at  -2.925153 -1.594460  0.326301
      ESP Fit Center  158 is at  -2.629993 -1.889620  0.326301
      ESP Fit Center  159 is at  -2.276554 -2.111700  0.326301
      ESP Fit Center  160 is at  -1.882559 -2.249565  0.326301
      ESP Fit Center  161 is at  -1.467764 -2.296301  0.326301
      ESP Fit Center  162 is at  -2.561665  1.181153 -0.074497
      ESP Fit Center  163 is at  -2.882920  0.908277 -0.074497
      ESP Fit Center  164 is at  -3.138004  0.572720 -0.074497
      ESP Fit Center  165 is at  -3.314989  0.190172 -0.074497
      ESP Fit Center  166 is at  -3.405600 -0.221478 -0.074497
      ESP Fit Center  167 is at  -3.405600 -0.642983 -0.074497
      ESP Fit Center  168 is at  -3.314989 -1.054633 -0.074497
      ESP Fit Center  169 is at  -3.138004 -1.437180 -0.074497
      ESP Fit Center  170 is at  -2.882920 -1.772737 -0.074497
      ESP Fit Center  171 is at  -2.561665 -2.045614 -0.074497
      ESP Fit Center  172 is at  -2.189261 -2.243050 -0.074497
      ESP Fit Center  173 is at  -1.783120 -2.355815 -0.074497
      ESP Fit Center  174 is at  -1.362233 -2.378635 -0.074497
      ESP Fit Center  175 is at  -2.189261  1.378589 -0.484248
      ESP Fit Center  176 is at  -2.561665  1.181153 -0.484248
      ESP Fit Center  177 is at  -2.882920  0.908277 -0.484248
      ESP Fit Center  178 is at  -3.138004  0.572720 -0.484248
      ESP Fit Center  179 is at  -3.314989  0.190172 -0.484248
      ESP Fit Center  180 is at  -3.405600 -0.221478 -0.484248
      ESP Fit Center  181 is at  -3.405600 -0.642983 -0.484248
      ESP Fit Center  182 is at  -3.314989 -1.054633 -0.484248
      ESP Fit Center  183 is at  -3.138004 -1.437180 -0.484248
      ESP Fit Center  184 is at  -2.882920 -1.772737 -0.484248
      ESP Fit Center  185 is at  -2.561665 -2.045614 -0.484248
      ESP Fit Center  186 is at  -2.189261 -2.243050 -0.484248
      ESP Fit Center  187 is at  -1.783120 -2.355815 -0.484248
      ESP Fit Center  188 is at  -1.362233 -2.378635 -0.484248
      ESP Fit Center  189 is at  -0.946281 -2.310443 -0.484248
      ESP Fit Center  190 is at  -2.276554  1.247239 -0.885046
      ESP Fit Center  191 is at  -2.629993  1.025159 -0.885046
      ESP Fit Center  192 is at  -2.925153  0.729999 -0.885046
      ESP Fit Center  193 is at  -3.147234  0.376560 -0.885046
      ESP Fit Center  194 is at  -3.285099 -0.017436 -0.885046
      ESP Fit Center  195 is at  -3.331835 -0.432230 -0.885046
      ESP Fit Center  196 is at  -3.285099 -0.847025 -0.885046
      ESP Fit Center  197 is at  -3.147234 -1.241020 -0.885046
      ESP Fit Center  198 is at  -2.925153 -1.594460 -0.885046
      ESP Fit Center  199 is at  -2.629993 -1.889620 -0.885046
      ESP Fit Center  200 is at  -2.276554 -2.111700 -0.885046
      ESP Fit Center  201 is at  -1.882559 -2.249565 -0.885046
      ESP Fit Center  202 is at  -1.467764 -2.296301 -0.885046
      ESP Fit Center  203 is at  -1.052969 -2.249565 -0.885046
      ESP Fit Center  204 is at  -2.190486  1.103632 -1.259373
      ESP Fit Center  205 is at  -2.549734  0.875646 -1.259373
      ESP Fit Center  206 is at  -2.840998  0.565482 -1.259373
      ESP Fit Center  207 is at  -3.045976  0.192628 -1.259373
      ESP Fit Center  208 is at  -3.151789 -0.219489 -1.259373
      ESP Fit Center  209 is at  -3.151789 -0.644972 -1.259373
      ESP Fit Center  210 is at  -3.045976 -1.057089 -1.259373
      ESP Fit Center  211 is at  -2.840998 -1.429943 -1.259373
      ESP Fit Center  212 is at  -2.549734 -1.740107 -1.259373
      ESP Fit Center  213 is at  -2.190486 -1.968093 -1.259373
      ESP Fit Center  214 is at  -1.785827 -2.099574 -1.259373
      ESP Fit Center  215 is at  -1.361183 -2.126291 -1.259373
      ESP Fit Center  216 is at  -0.943236 -2.046563 -1.259373
      ESP Fit Center  217 is at  -2.072843  0.892707 -1.590869
      ESP Fit Center  218 is at  -2.421611  0.668567 -1.590869
      ESP Fit Center  219 is at  -2.693104  0.355247 -1.590869
      ESP Fit Center  220 is at  -2.865327 -0.021869 -1.590869
      ESP Fit Center  221 is at  -2.924328 -0.432230 -1.590869
      ESP Fit Center  222 is at  -2.865327 -0.842592 -1.590869
      ESP Fit Center  223 is at  -2.693104 -1.219708 -1.590869
      ESP Fit Center  224 is at  -2.421611 -1.533028 -1.590869
      ESP Fit Center  225 is at  -2.072843 -1.757168 -1.590869
      ESP Fit Center  226 is at  -1.675055 -1.873969 -1.590869
      ESP Fit Center  227 is at  -1.260474 -1.873969 -1.590869
      ESP Fit Center  228 is at  -0.862686 -1.757168 -1.590869
      ESP Fit Center  229 is at  -1.783040  0.675850 -1.865046
      ESP Fit Center  230 is at  -2.162035  0.487133 -1.865046
      ESP Fit Center  231 is at  -2.447265  0.174251 -1.865046
      ESP Fit Center  232 is at  -2.600207 -0.220540 -1.865046
      ESP Fit Center  233 is at  -2.600207 -0.643921 -1.865046
      ESP Fit Center  234 is at  -2.447265 -1.038711 -1.865046
      ESP Fit Center  235 is at  -2.162035 -1.351593 -1.865046
      ESP Fit Center  236 is at  -1.783040 -1.540310 -1.865046
      ESP Fit Center  237 is at  -1.361466 -1.579375 -1.865046
      ESP Fit Center  238 is at  -0.954247 -1.463511 -1.865046
      ESP Fit Center  239 is at  -1.467764  0.364973 -2.069922
      ESP Fit Center  240 is at  -1.866366  0.258168 -2.069922
      ESP Fit Center  241 is at  -2.158163 -0.033629 -2.069922
      ESP Fit Center  242 is at  -2.264968 -0.432230 -2.069922
      ESP Fit Center  243 is at  -2.158163 -0.830832 -2.069922
      ESP Fit Center  244 is at  -1.866366 -1.122629 -2.069922
      ESP Fit Center  245 is at  -1.467764 -1.229434 -2.069922
      ESP Fit Center  246 is at  -1.069162 -1.122629 -2.069922
      ESP Fit Center  247 is at  -1.264011 -0.079319 -2.196542
      ESP Fit Center  248 is at  -1.671518 -0.079319 -2.196542
      ESP Fit Center  249 is at  -1.875271 -0.432230 -2.196542
      ESP Fit Center  250 is at  -1.671518 -0.785142 -2.196542
      ESP Fit Center  251 is at  -1.264011 -0.785142 -2.196542
      ESP Fit Center  252 is at  -1.467764 -0.432230 -2.239373
      ESP Fit Center  253 is at   0.561305 -0.767116  3.102206
      ESP Fit Center  254 is at   0.968812 -0.767116  3.059376
      ESP Fit Center  255 is at   0.765059 -0.414205  3.059376
      ESP Fit Center  256 is at   0.357552 -0.414205  3.059376
      ESP Fit Center  257 is at   0.153798 -0.767116  3.059376
      ESP Fit Center  258 is at   0.357552 -1.120028  3.059376
      ESP Fit Center  259 is at   0.765059 -1.120028  3.059376
      ESP Fit Center  260 is at   1.358509 -0.767116  2.932755
      ESP Fit Center  261 is at   1.251704 -0.368514  2.932755
      ESP Fit Center  262 is at   0.959907 -0.076718  2.932755
      ESP Fit Center  263 is at   0.561305  0.030088  2.932755
      ESP Fit Center  264 is at   0.162703 -0.076718  2.932755
      ESP Fit Center  265 is at  -0.129094 -0.368514  2.932755
      ESP Fit Center  266 is at  -0.235899 -0.767116  2.932755
      ESP Fit Center  267 is at  -0.129094 -1.165718  2.932755
      ESP Fit Center  268 is at   0.162703 -1.457515  2.932755
      ESP Fit Center  269 is at   0.561305 -1.564320  2.932755
      ESP Fit Center  270 is at   0.959907 -1.457515  2.932755
      ESP Fit Center  271 is at   1.251704 -1.165718  2.932755
      ESP Fit Center  272 is at   1.713364 -0.767116  2.727880
      ESP Fit Center  273 is at   1.635568 -0.350945  2.727880
      ESP Fit Center  274 is at   1.412687  0.009021  2.727880
      ESP Fit Center  275 is at   1.074822  0.264165  2.727880
      ESP Fit Center  276 is at   0.667604  0.380028  2.727880
      ESP Fit Center  277 is at   0.246029  0.340964  2.727880
      ESP Fit Center  278 is at  -0.132966  0.152247  2.727880
      ESP Fit Center  279 is at  -0.418195 -0.160635  2.727880
      ESP Fit Center  280 is at  -0.571138 -0.555426  2.727880
      ESP Fit Center  281 is at  -0.571138 -0.978807  2.727880
      ESP Fit Center  282 is at  -0.418195 -1.373597  2.727880
      ESP Fit Center  283 is at  -0.132966 -1.686479  2.727880
      ESP Fit Center  284 is at   0.246029 -1.875196  2.727880
      ESP Fit Center  285 is at   0.667604 -1.914261  2.727880
      ESP Fit Center  286 is at   1.074822 -1.798397  2.727880
      ESP Fit Center  287 is at   1.412687 -1.543253  2.727880
      ESP Fit Center  288 is at   1.635568 -1.183288  2.727880
      ESP Fit Center  289 is at   2.017869 -0.767116  2.453702
      ESP Fit Center  290 is at   1.958868 -0.356755  2.453702
      ESP Fit Center  291 is at   1.786645  0.020362  2.453702
      ESP Fit Center  292 is at   1.515152  0.333681  2.453702
      ESP Fit Center  293 is at   1.166384  0.557821  2.453702
      ESP Fit Center  294 is at   0.768596  0.674622  2.453702
      ESP Fit Center  295 is at   0.354014  0.674622  2.453702
      ESP Fit Center  296 is at  -0.836258 -0.356755  2.453702
      ESP Fit Center  297 is at  -0.895259 -0.767116  2.453702
      ESP Fit Center  298 is at  -0.836258 -1.177478  2.453702
      ESP Fit Center  299 is at  -0.664034 -1.554594  2.453702
      ESP Fit Center  300 is at  -0.392541 -1.867914  2.453702
      ESP Fit Center  301 is at  -0.043773 -2.092053  2.453702
      ESP Fit Center  302 is at   0.354014 -2.208854  2.453702
      ESP Fit Center  303 is at   0.768596 -2.208854  2.453702
      ESP Fit Center  304 is at   1.166384 -2.092053  2.453702
      ESP Fit Center  305 is at   1.515152 -1.867914  2.453702
      ESP Fit Center  306 is at   1.786645 -1.554594  2.453702
      ESP Fit Center  307 is at   1.958868 -1.177478  2.453702
      ESP Fit Center  308 is at   2.258715 -0.767116  2.122206
      ESP Fit Center  309 is at   2.205388 -0.344988  2.122206
      ESP Fit Center  310 is at   2.048757  0.050617  2.122206
      ESP Fit Center  311 is at   1.798664  0.394841  2.122206
      ESP Fit Center  312 is at   1.470823  0.666054  2.122206
      ESP Fit Center  313 is at   1.085834  0.847216  2.122206
      ESP Fit Center  314 is at  -1.122720 -0.979858  2.122206
      ESP Fit Center  315 is at  -1.016907 -1.391974  2.122206
      ESP Fit Center  316 is at  -0.811928 -1.764829  2.122206
      ESP Fit Center  317 is at  -0.520665 -2.074993  2.122206
      ESP Fit Center  318 is at  -0.161417 -2.302979  2.122206
      ESP Fit Center  319 is at   0.243242 -2.434460  2.122206
      ESP Fit Center  320 is at   0.667886 -2.461177  2.122206
      ESP Fit Center  321 is at   1.085834 -2.381449  2.122206
      ESP Fit Center  322 is at   1.470823 -2.200287  2.122206
      ESP Fit Center  323 is at   1.798664 -1.929073  2.122206
      ESP Fit Center  324 is at   2.048757 -1.584850  2.122206
      ESP Fit Center  325 is at   2.205388 -1.189245  2.122206
      ESP Fit Center  326 is at   2.425376 -0.767116  1.747880
      ESP Fit Center  327 is at   2.378640 -0.352321  1.747880
      ESP Fit Center  328 is at   2.240775  0.041674  1.747880
      ESP Fit Center  329 is at   2.018694  0.395113  1.747880
      ESP Fit Center  330 is at   1.723534  0.690273  1.747880
      ESP Fit Center  331 is at  -1.118165 -1.575906  1.747880
      ESP Fit Center  332 is at  -0.896084 -1.929345  1.747880
      ESP Fit Center  333 is at  -0.600924 -2.224505  1.747880
      ESP Fit Center  334 is at  -0.247485 -2.446586  1.747880
      ESP Fit Center  335 is at   0.146510 -2.584451  1.747880
      ESP Fit Center  336 is at   0.561305 -2.631187  1.747880
      ESP Fit Center  337 is at   0.976100 -2.584451  1.747880
      ESP Fit Center  338 is at   1.370095 -2.446586  1.747880
      ESP Fit Center  339 is at   1.723534 -2.224505  1.747880
      ESP Fit Center  340 is at   2.018694 -1.929345  1.747880
      ESP Fit Center  341 is at   2.240775 -1.575906  1.747880
      ESP Fit Center  342 is at   2.378640 -1.181911  1.747880
      ESP Fit Center  343 is at   2.510568 -0.767116  1.347082
      ESP Fit Center  344 is at   2.464995 -0.348082  1.347082
      ESP Fit Center  345 is at   2.330408  0.051358  1.347082
      ESP Fit Center  346 is at   2.113100  0.412527  1.347082
      ESP Fit Center  347 is at  -0.853851 -2.107623  1.347082
      ESP Fit Center  348 is at  -0.532596 -2.380500  1.347082
      ESP Fit Center  349 is at  -0.160191 -2.577936  1.347082
      ESP Fit Center  350 is at   0.245949 -2.690701  1.347082
      ESP Fit Center  351 is at   0.666836 -2.713520  1.347082
      ESP Fit Center  352 is at   1.082788 -2.645329  1.347082
      ESP Fit Center  353 is at   1.474356 -2.489314  1.347082
      ESP Fit Center  354 is at   1.823231 -2.252770  1.347082
      ESP Fit Center  355 is at   2.113100 -1.946760  1.347082
      ESP Fit Center  356 is at   2.330408 -1.585591  1.347082
      ESP Fit Center  357 is at   2.464995 -1.186150  1.347082
      ESP Fit Center  358 is at   2.510568 -0.767116  0.937330
      ESP Fit Center  359 is at   2.464995 -0.348082  0.937330
      ESP Fit Center  360 is at   2.330408  0.051358  0.937330
      ESP Fit Center  361 is at  -0.532596 -2.380500  0.937330
      ESP Fit Center  362 is at  -0.160191 -2.577936  0.937330
      ESP Fit Center  363 is at   0.245949 -2.690701  0.937330
      ESP Fit Center  364 is at   0.666836 -2.713520  0.937330
      ESP Fit Center  365 is at   1.082788 -2.645329  0.937330
      ESP Fit Center  366 is at   1.474356 -2.489314  0.937330
      ESP Fit Center  367 is at   1.823231 -2.252770  0.937330
      ESP Fit Center  368 is at   2.113100 -1.946760  0.937330
      ESP Fit Center  369 is at   2.330408 -1.585591  0.937330
      ESP Fit Center  370 is at   2.464995 -1.186150  0.937330
      ESP Fit Center  371 is at   2.425376 -0.767116  0.536533
      ESP Fit Center  372 is at  -0.247485 -2.446586  0.536533
      ESP Fit Center  373 is at   0.146510 -2.584451  0.536533
      ESP Fit Center  374 is at   0.561305 -2.631187  0.536533
      ESP Fit Center  375 is at   0.976100 -2.584451  0.536533
      ESP Fit Center  376 is at   1.370095 -2.446586  0.536533
      ESP Fit Center  377 is at   1.723534 -2.224505  0.536533
      ESP Fit Center  378 is at   2.018694 -1.929345  0.536533
      ESP Fit Center  379 is at   2.240775 -1.575906  0.536533
      ESP Fit Center  380 is at   2.378640 -1.181911  0.536533
      ESP Fit Center  381 is at   0.667886 -2.461177  0.162206
      ESP Fit Center  382 is at   1.085834 -2.381449  0.162206
      ESP Fit Center  383 is at   1.470823 -2.200287  0.162206
      ESP Fit Center  384 is at   1.798664 -1.929073  0.162206
      ESP Fit Center  385 is at   2.048757 -1.584850  0.162206
      ESP Fit Center  386 is at   0.058645  1.461124  2.223266
      ESP Fit Center  387 is at   0.466152  1.461124  2.180435
      ESP Fit Center  388 is at   0.262398  1.814035  2.180435
      ESP Fit Center  389 is at  -0.145109  1.814035  2.180435
      ESP Fit Center  390 is at  -0.348862  1.461124  2.180435
      ESP Fit Center  391 is at   0.855849  1.461124  2.053815
      ESP Fit Center  392 is at   0.749043  1.859726  2.053815
      ESP Fit Center  393 is at   0.457247  2.151523  2.053815
      ESP Fit Center  394 is at   0.058645  2.258328  2.053815
      ESP Fit Center  395 is at  -0.339957  2.151523  2.053815
      ESP Fit Center  396 is at  -0.631754  1.859726  2.053815
      ESP Fit Center  397 is at  -0.738559  1.461124  2.053815
      ESP Fit Center  398 is at   1.210704  1.461124  1.848939
      ESP Fit Center  399 is at   1.132908  1.877296  1.848939
      ESP Fit Center  400 is at   0.910027  2.237261  1.848939
      ESP Fit Center  401 is at   0.572162  2.492405  1.848939
      ESP Fit Center  402 is at   0.164943  2.608268  1.848939
      ESP Fit Center  403 is at  -0.256631  2.569204  1.848939
      ESP Fit Center  404 is at  -0.635626  2.380487  1.848939
      ESP Fit Center  405 is at  -0.920856  2.067605  1.848939
      ESP Fit Center  406 is at  -1.073798  1.672814  1.848939
      ESP Fit Center  407 is at   1.515209  1.461124  1.574762
      ESP Fit Center  408 is at   1.456208  1.871485  1.574762
      ESP Fit Center  409 is at   1.283984  2.248602  1.574762
      ESP Fit Center  410 is at   1.012491  2.561921  1.574762
      ESP Fit Center  411 is at   0.663723  2.786061  1.574762
      ESP Fit Center  412 is at   0.265935  2.902862  1.574762
      ESP Fit Center  413 is at  -0.148646  2.902862  1.574762
      ESP Fit Center  414 is at  -0.546434  2.786061  1.574762
      ESP Fit Center  415 is at  -0.895202  2.561921  1.574762
      ESP Fit Center  416 is at  -1.166695  2.248602  1.574762
      ESP Fit Center  417 is at  -1.338918  1.871485  1.574762
      ESP Fit Center  418 is at   1.756055  1.461124  1.243266
      ESP Fit Center  419 is at   1.702727  1.883253  1.243266
      ESP Fit Center  420 is at   1.546096  2.278857  1.243266
      ESP Fit Center  421 is at   1.296003  2.623081  1.243266
      ESP Fit Center  422 is at   0.968162  2.894294  1.243266
      ESP Fit Center  423 is at   0.583173  3.075457  1.243266
      ESP Fit Center  424 is at   0.165226  3.155184  1.243266
      ESP Fit Center  425 is at  -0.259418  3.128468  1.243266
      ESP Fit Center  426 is at  -0.664077  2.996986  1.243266
      ESP Fit Center  427 is at  -1.023325  2.769001  1.243266
      ESP Fit Center  428 is at  -1.314589  2.458836  1.243266
      ESP Fit Center  429 is at  -1.519567  2.085982  1.243266
      ESP Fit Center  430 is at  -1.625380  1.673866  1.243266
      ESP Fit Center  431 is at   1.922715  1.461124  0.868939
      ESP Fit Center  432 is at   1.875979  1.875919  0.868939
      ESP Fit Center  433 is at   1.738114  2.269914  0.868939
      ESP Fit Center  434 is at   1.516034  2.623353  0.868939
      ESP Fit Center  435 is at   1.220874  2.918513  0.868939
      ESP Fit Center  436 is at   0.867435  3.140594  0.868939
      ESP Fit Center  437 is at   0.473439  3.278459  0.868939
      ESP Fit Center  438 is at   0.058645  3.325195  0.868939
      ESP Fit Center  439 is at  -0.356150  3.278459  0.868939
      ESP Fit Center  440 is at  -0.750145  3.140594  0.868939
      ESP Fit Center  441 is at  -1.103584  2.918513  0.868939
      ESP Fit Center  442 is at  -1.398744  2.623353  0.868939
      ESP Fit Center  443 is at  -1.620825  2.269914  0.868939
      ESP Fit Center  444 is at  -1.758690  1.875919  0.868939
      ESP Fit Center  445 is at   2.007908  1.461124  0.468142
      ESP Fit Center  446 is at   1.962335  1.880158  0.468142
      ESP Fit Center  447 is at   1.827748  2.279598  0.468142
      ESP Fit Center  448 is at   1.610439  2.640768  0.468142
      ESP Fit Center  449 is at   1.320571  2.946778  0.468142
      ESP Fit Center  450 is at   0.971696  3.183321  0.468142
      ESP Fit Center  451 is at   0.580128  3.339336  0.468142
      ESP Fit Center  452 is at   0.164176  3.407528  0.468142
      ESP Fit Center  453 is at  -0.256711  3.384708  0.468142
      ESP Fit Center  454 is at  -0.662852  3.271944  0.468142
      ESP Fit Center  455 is at  -1.035256  3.074507  0.468142
      ESP Fit Center  456 is at  -1.356511  2.801631  0.468142
      ESP Fit Center  457 is at  -1.611595  2.466074  0.468142
      ESP Fit Center  458 is at  -1.788580  2.083527  0.468142
      ESP Fit Center  459 is at   2.007908  1.461124  0.058390
      ESP Fit Center  460 is at   1.962335  1.880158  0.058390
      ESP Fit Center  461 is at   1.827748  2.279598  0.058390
      ESP Fit Center  462 is at   1.610439  2.640768  0.058390
      ESP Fit Center  463 is at   1.320571  2.946778  0.058390
      ESP Fit Center  464 is at   0.971696  3.183321  0.058390
      ESP Fit Center  465 is at   0.580128  3.339336  0.058390
      ESP Fit Center  466 is at   0.164176  3.407528  0.058390
      ESP Fit Center  467 is at  -0.256711  3.384708  0.058390
      ESP Fit Center  468 is at  -0.662852  3.271944  0.058390
      ESP Fit Center  469 is at  -1.035256  3.074507  0.058390
      ESP Fit Center  470 is at  -1.356511  2.801631  0.058390
      ESP Fit Center  471 is at  -1.611595  2.466074  0.058390
      ESP Fit Center  472 is at  -1.788580  2.083527  0.058390
      ESP Fit Center  473 is at   1.875979  1.875919 -0.342408
      ESP Fit Center  474 is at   1.738114  2.269914 -0.342408
      ESP Fit Center  475 is at   1.516034  2.623353 -0.342408
      ESP Fit Center  476 is at   1.220874  2.918513 -0.342408
      ESP Fit Center  477 is at   0.867435  3.140594 -0.342408
      ESP Fit Center  478 is at   0.473439  3.278459 -0.342408
      ESP Fit Center  479 is at   0.058645  3.325195 -0.342408
      ESP Fit Center  480 is at  -0.356150  3.278459 -0.342408
      ESP Fit Center  481 is at  -0.750145  3.140594 -0.342408
      ESP Fit Center  482 is at  -1.103584  2.918513 -0.342408
      ESP Fit Center  483 is at  -1.398744  2.623353 -0.342408
      ESP Fit Center  484 is at  -1.620825  2.269914 -0.342408
      ESP Fit Center  485 is at   1.702727  1.883253 -0.716734
      ESP Fit Center  486 is at   1.546096  2.278857 -0.716734
      ESP Fit Center  487 is at   1.296003  2.623081 -0.716734
      ESP Fit Center  488 is at   0.968162  2.894294 -0.716734
      ESP Fit Center  489 is at   0.583173  3.075457 -0.716734
      ESP Fit Center  490 is at   0.165226  3.155184 -0.716734
      ESP Fit Center  491 is at  -0.259418  3.128468 -0.716734
      ESP Fit Center  492 is at  -0.664077  2.996986 -0.716734
      ESP Fit Center  493 is at  -1.023325  2.769001 -0.716734
      ESP Fit Center  494 is at  -1.314589  2.458836 -0.716734
      ESP Fit Center  495 is at  -1.519567  2.085982 -0.716734
      ESP Fit Center  496 is at   1.456208  1.871485 -1.048230
      ESP Fit Center  497 is at   1.283984  2.248602 -1.048230
      ESP Fit Center  498 is at   1.012491  2.561921 -1.048230
      ESP Fit Center  499 is at   0.663723  2.786061 -1.048230
      ESP Fit Center  500 is at   0.265935  2.902862 -1.048230
      ESP Fit Center  501 is at  -0.148646  2.902862 -1.048230
      ESP Fit Center  502 is at  -0.546434  2.786061 -1.048230
      ESP Fit Center  503 is at  -0.895202  2.561921 -1.048230
      ESP Fit Center  504 is at  -1.166695  2.248602 -1.048230
      ESP Fit Center  505 is at   1.132908  1.877296 -1.322408
      ESP Fit Center  506 is at   0.910027  2.237261 -1.322408
      ESP Fit Center  507 is at   0.572162  2.492405 -1.322408
      ESP Fit Center  508 is at   0.164943  2.608268 -1.322408
      ESP Fit Center  509 is at  -0.256631  2.569204 -1.322408
      ESP Fit Center  510 is at  -0.635626  2.380487 -1.322408
      ESP Fit Center  511 is at  -0.920856  2.067605 -1.322408
      ESP Fit Center  512 is at   0.749043  1.859726 -1.527283
      ESP Fit Center  513 is at   0.457247  2.151523 -1.527283
      ESP Fit Center  514 is at   0.058645  2.258328 -1.527283
      ESP Fit Center  515 is at  -0.339957  2.151523 -1.527283
      ESP Fit Center  516 is at   1.721853 -1.771283 -0.097648
      ESP Fit Center  517 is at   2.049694 -1.500069 -0.097648
      ESP Fit Center  518 is at   1.227130 -2.155447 -0.471975
      ESP Fit Center  519 is at   1.621125 -2.017582 -0.471975
      ESP Fit Center  520 is at   1.974564 -1.795501 -0.471975
      ESP Fit Center  521 is at   0.496979 -2.261697 -0.872772
      ESP Fit Center  522 is at   0.917866 -2.284516 -0.872772
      ESP Fit Center  523 is at   1.333818 -2.216324 -0.872772
      ESP Fit Center  524 is at   1.725386 -2.060309 -0.872772
      ESP Fit Center  525 is at   2.074261 -1.823766 -0.872772
      ESP Fit Center  526 is at   0.090838 -2.148932 -1.282524
      ESP Fit Center  527 is at   0.496979 -2.261697 -1.282524
      ESP Fit Center  528 is at   0.917866 -2.284516 -1.282524
      ESP Fit Center  529 is at   1.333818 -2.216324 -1.282524
      ESP Fit Center  530 is at   1.725386 -2.060309 -1.282524
      ESP Fit Center  531 is at   2.074261 -1.823766 -1.282524
      ESP Fit Center  532 is at   1.227130  1.479222 -1.683321
      ESP Fit Center  533 is at  -0.349894 -1.795501 -1.683321
      ESP Fit Center  534 is at   0.003545 -2.017582 -1.683321
      ESP Fit Center  535 is at   0.397540 -2.155447 -1.683321
      ESP Fit Center  536 is at   0.812335 -2.202183 -1.683321
      ESP Fit Center  537 is at   1.227130 -2.155447 -1.683321
      ESP Fit Center  538 is at   1.621125 -2.017582 -1.683321
      ESP Fit Center  539 is at   1.974564 -1.795501 -1.683321
      ESP Fit Center  540 is at   2.269724 -1.500341 -1.683321
      ESP Fit Center  541 is at   1.336863  1.276220 -2.057648
      ESP Fit Center  542 is at   0.918916  1.355948 -2.057648
      ESP Fit Center  543 is at   0.494272  1.329232 -2.057648
      ESP Fit Center  544 is at  -0.560898 -1.335825 -2.057648
      ESP Fit Center  545 is at  -0.269635 -1.645989 -2.057648
      ESP Fit Center  546 is at   0.089613 -1.873975 -2.057648
      ESP Fit Center  547 is at   0.494272 -2.005456 -2.057648
      ESP Fit Center  548 is at   0.918916 -2.032173 -2.057648
      ESP Fit Center  549 is at   1.336863 -1.952445 -2.057648
      ESP Fit Center  550 is at   1.721853 -1.771283 -2.057648
      ESP Fit Center  551 is at   2.049694 -1.500069 -2.057648
      ESP Fit Center  552 is at   2.299787 -1.155846 -2.057648
      ESP Fit Center  553 is at   1.766181  0.762685 -2.389144
      ESP Fit Center  554 is at   1.417414  0.986825 -2.389144
      ESP Fit Center  555 is at   1.019626  1.103626 -2.389144
      ESP Fit Center  556 is at   0.605044  1.103626 -2.389144
      ESP Fit Center  557 is at   0.207257  0.986825 -2.389144
      ESP Fit Center  558 is at  -0.141511  0.762685 -2.389144
      ESP Fit Center  559 is at  -0.585228 -0.748474 -2.389144
      ESP Fit Center  560 is at  -0.413004 -1.125590 -2.389144
      ESP Fit Center  561 is at  -0.141511 -1.438910 -2.389144
      ESP Fit Center  562 is at   0.207257 -1.663049 -2.389144
      ESP Fit Center  563 is at   0.605044 -1.779850 -2.389144
      ESP Fit Center  564 is at   1.019626 -1.779850 -2.389144
      ESP Fit Center  565 is at   1.417414 -1.663049 -2.389144
      ESP Fit Center  566 is at   1.766181 -1.438910 -2.389144
      ESP Fit Center  567 is at   2.037675 -1.125590 -2.389144
      ESP Fit Center  568 is at   2.209898 -0.748474 -2.389144
      ESP Fit Center  569 is at   1.964394 -0.338112 -2.663321
      ESP Fit Center  570 is at   1.886598  0.078060 -2.663321
      ESP Fit Center  571 is at   1.663717  0.438025 -2.663321
      ESP Fit Center  572 is at   1.325852  0.693169 -2.663321
      ESP Fit Center  573 is at   0.918634  0.809032 -2.663321
      ESP Fit Center  574 is at   0.497059  0.769968 -2.663321
      ESP Fit Center  575 is at   0.118064  0.581251 -2.663321
      ESP Fit Center  576 is at  -0.167165  0.268369 -2.663321
      ESP Fit Center  577 is at  -0.320108 -0.126422 -2.663321
      ESP Fit Center  578 is at  -0.320108 -0.549803 -2.663321
      ESP Fit Center  579 is at  -0.167165 -0.944593 -2.663321
      ESP Fit Center  580 is at   0.118064 -1.257475 -2.663321
      ESP Fit Center  581 is at   0.497059 -1.446192 -2.663321
      ESP Fit Center  582 is at   0.918634 -1.485257 -2.663321
      ESP Fit Center  583 is at   1.325852 -1.369393 -2.663321
      ESP Fit Center  584 is at   1.663717 -1.114249 -2.663321
      ESP Fit Center  585 is at   1.886598 -0.754284 -2.663321
      ESP Fit Center  586 is at   1.609539 -0.338112 -2.868197
      ESP Fit Center  587 is at   1.502734  0.060490 -2.868197
      ESP Fit Center  588 is at   1.210937  0.352287 -2.868197
      ESP Fit Center  589 is at   0.812335  0.459092 -2.868197
      ESP Fit Center  590 is at   0.413733  0.352287 -2.868197
      ESP Fit Center  591 is at   0.121936  0.060490 -2.868197
      ESP Fit Center  592 is at   0.015131 -0.338112 -2.868197
      ESP Fit Center  593 is at   0.121936 -0.736714 -2.868197
      ESP Fit Center  594 is at   0.413733 -1.028511 -2.868197
      ESP Fit Center  595 is at   0.812335 -1.135316 -2.868197
      ESP Fit Center  596 is at   1.210937 -1.028511 -2.868197
      ESP Fit Center  597 is at   1.502734 -0.736714 -2.868197
      ESP Fit Center  598 is at   1.219842 -0.338112 -2.994817
      ESP Fit Center  599 is at   1.016088  0.014799 -2.994817
      ESP Fit Center  600 is at   0.608582  0.014799 -2.994817
      ESP Fit Center  601 is at   0.404828 -0.338112 -2.994817
      ESP Fit Center  602 is at   0.608582 -0.691024 -2.994817
      ESP Fit Center  603 is at   1.016088 -0.691024 -2.994817
      ESP Fit Center  604 is at   0.812335 -0.338112 -3.037648
      ESP Fit Center  605 is at   2.530268 -0.034509  0.577134
      ESP Fit Center  606 is at   2.417730  0.385491  0.577134
      ESP Fit Center  607 is at   2.417730 -0.454509  0.577134
      ESP Fit Center  608 is at   2.878208 -0.034509  0.310151
      ESP Fit Center  609 is at   2.797989  0.394625  0.310151
      ESP Fit Center  610 is at   2.568166  0.765801  0.310151
      ESP Fit Center  611 is at   2.219779  1.028891  0.310151
      ESP Fit Center  612 is at   2.568166 -0.834818  0.310151
      ESP Fit Center  613 is at   2.797989 -0.463642  0.310151
      ESP Fit Center  614 is at   3.145191 -0.034509 -0.037789
      ESP Fit Center  615 is at   3.080553  0.394337 -0.037789
      ESP Fit Center  616 is at   2.892382  0.785079 -0.037789
      ESP Fit Center  617 is at   2.597398  1.102996 -0.037789
      ESP Fit Center  618 is at   2.221811  1.319841 -0.037789
      ESP Fit Center  619 is at   2.221811 -1.388858 -0.037789
      ESP Fit Center  620 is at   2.597398 -1.172013 -0.037789
      ESP Fit Center  621 is at   2.892382 -0.854096 -0.037789
      ESP Fit Center  622 is at   3.080553 -0.463355 -0.037789
      ESP Fit Center  623 is at   3.313024 -0.034509 -0.442973
      ESP Fit Center  624 is at   3.257730  0.385491 -0.442973
      ESP Fit Center  625 is at   3.095616  0.776869 -0.442973
      ESP Fit Center  626 is at   2.837730  1.112953 -0.442973
      ESP Fit Center  627 is at   2.501646  1.370839 -0.442973
      ESP Fit Center  628 is at   2.110268  1.532953 -0.442973
      ESP Fit Center  629 is at   2.501646 -1.439856 -0.442973
      ESP Fit Center  630 is at   2.837730 -1.181970 -0.442973
      ESP Fit Center  631 is at   3.095616 -0.845886 -0.442973
      ESP Fit Center  632 is at   3.257730 -0.454509 -0.442973
      ESP Fit Center  633 is at   3.370268 -0.034509 -0.877789
      ESP Fit Center  634 is at   3.317488  0.383290 -0.877789
      ESP Fit Center  635 is at   3.162464  0.774838 -0.877789
      ESP Fit Center  636 is at   2.914936  1.115531 -0.877789
      ESP Fit Center  637 is at   2.590457  1.383962 -0.877789
      ESP Fit Center  638 is at   2.209417  1.563266 -0.877789
      ESP Fit Center  639 is at   1.795756  1.642176 -0.877789
      ESP Fit Center  640 is at   2.590457 -1.452979 -0.877789
      ESP Fit Center  641 is at   2.914936 -1.184548 -0.877789
      ESP Fit Center  642 is at   3.162464 -0.843855 -0.877789
      ESP Fit Center  643 is at   3.317488 -0.452308 -0.877789
      ESP Fit Center  644 is at   3.313024 -0.034509 -1.312605
      ESP Fit Center  645 is at   3.257730  0.385491 -1.312605
      ESP Fit Center  646 is at   3.095616  0.776869 -1.312605
      ESP Fit Center  647 is at   2.837730  1.112953 -1.312605
      ESP Fit Center  648 is at   2.501646  1.370839 -1.312605
      ESP Fit Center  649 is at   2.110268  1.532953 -1.312605
      ESP Fit Center  650 is at   1.690268  1.588247 -1.312605
      ESP Fit Center  651 is at   2.501646 -1.439856 -1.312605
      ESP Fit Center  652 is at   2.837730 -1.181970 -1.312605
      ESP Fit Center  653 is at   3.095616 -0.845886 -1.312605
      ESP Fit Center  654 is at   3.257730 -0.454509 -1.312605
      ESP Fit Center  655 is at   3.145191 -0.034509 -1.717789
      ESP Fit Center  656 is at   3.080553  0.394337 -1.717789
      ESP Fit Center  657 is at   2.892382  0.785079 -1.717789
      ESP Fit Center  658 is at   2.597398  1.102996 -1.717789
      ESP Fit Center  659 is at   2.221811  1.319841 -1.717789
      ESP Fit Center  660 is at   1.798995  1.416346 -1.717789
      ESP Fit Center  661 is at   2.597398 -1.172013 -1.717789
      ESP Fit Center  662 is at   2.892382 -0.854096 -1.717789
      ESP Fit Center  663 is at   3.080553 -0.463355 -1.717789
      ESP Fit Center  664 is at   2.878208 -0.034509 -2.065728
      ESP Fit Center  665 is at   2.797989  0.394625 -2.065728
      ESP Fit Center  666 is at   2.568166  0.765801 -2.065728
      ESP Fit Center  667 is at   2.219779  1.028891 -2.065728
      ESP Fit Center  668 is at   1.799878  1.148363 -2.065728
      ESP Fit Center  669 is at   2.568166 -0.834818 -2.065728
      ESP Fit Center  670 is at   2.797989 -0.463642 -2.065728
      ESP Fit Center  671 is at   2.530268 -0.034509 -2.332711
      ESP Fit Center  672 is at   2.417730  0.385491 -2.332711
      ESP Fit Center  673 is at   2.110268  0.692953 -2.332711
      ESP Fit Center  674 is at   2.417730 -0.454509 -2.332711
      ESP Fit Center  675 is at  -0.298696  0.397968  2.883364
      ESP Fit Center  676 is at   0.311933  0.745697  2.796018
      ESP Fit Center  677 is at  -0.093762  0.854402  2.796018
      ESP Fit Center  678 is at  -0.499457  0.745697  2.796018
      ESP Fit Center  679 is at  -0.796446  0.448707  2.796018
      ESP Fit Center  680 is at  -0.905152  0.043013  2.796018
      ESP Fit Center  681 is at   0.504435  1.079121  2.652419
      ESP Fit Center  682 is at   0.113990  1.221232  2.652419
      ESP Fit Center  683 is at  -0.301514  1.221232  2.652419
      ESP Fit Center  684 is at  -0.691960  1.079121  2.652419
      ESP Fit Center  685 is at  -1.010254  0.812041  2.652419
      ESP Fit Center  686 is at  -1.218006  0.452204  2.652419
      ESP Fit Center  687 is at  -1.290157  0.043013  2.652419
      ESP Fit Center  688 is at  -1.218006 -0.366179  2.652419
      ESP Fit Center  689 is at   0.969004  1.180957  2.455489
      ESP Fit Center  690 is at   0.622580  1.425490  2.455489
      ESP Fit Center  691 is at  -0.615185  1.510156  2.455489
      ESP Fit Center  692 is at  -0.991680  1.315072  2.455489
      ESP Fit Center  693 is at  -1.301580  1.025645  2.455489
      ESP Fit Center  694 is at  -1.521902  0.663341  2.455489
      ESP Fit Center  695 is at  -1.636305  0.255030  2.455489
      ESP Fit Center  696 is at  -1.636305 -0.169005  2.455489
      ESP Fit Center  697 is at  -1.521902 -0.577316  2.455489
      ESP Fit Center  698 is at  -1.301580 -0.939620  2.455489
      ESP Fit Center  699 is at   1.380771  1.218914  2.209237
      ESP Fit Center  700 is at  -1.269663  1.517546  2.209237
      ESP Fit Center  701 is at  -1.568296  1.218914  2.209237
      ESP Fit Center  702 is at  -1.792989  0.861317  2.209237
      ESP Fit Center  703 is at  -1.932475  0.462687  2.209237
      ESP Fit Center  704 is at  -1.979761  0.043013  2.209237
      ESP Fit Center  705 is at  -1.932475 -0.376662  2.209237
      ESP Fit Center  706 is at  -1.792989 -0.775292  2.209237
      ESP Fit Center  707 is at  -1.568296 -1.132888  2.209237
      ESP Fit Center  708 is at   1.926885  0.851958  1.918677
      ESP Fit Center  709 is at   1.737275  1.219749  1.918677
      ESP Fit Center  710 is at  -1.519105  1.687946  1.918677
      ESP Fit Center  711 is at  -1.804653  1.388472  1.918677
      ESP Fit Center  712 is at  -2.028365  1.040370  1.918677
      ESP Fit Center  713 is at  -2.182155  0.656220  1.918677
      ESP Fit Center  714 is at  -2.260465  0.249908  1.918677
      ESP Fit Center  715 is at  -2.260465 -0.163882  1.918677
      ESP Fit Center  716 is at  -2.182155 -0.570195  1.918677
      ESP Fit Center  717 is at  -2.028365 -0.954344  1.918677
      ESP Fit Center  718 is at  -1.804653 -1.302447  1.918677
      ESP Fit Center  719 is at  -1.519105 -1.601921  1.918677
      ESP Fit Center  720 is at   2.190651  0.850147  1.589724
      ESP Fit Center  721 is at   2.021385  1.224605  1.589724
      ESP Fit Center  722 is at  -1.842925  1.719449  1.589724
      ESP Fit Center  723 is at  -2.101084  1.399725  1.589724
      ESP Fit Center  724 is at  -2.301496  1.040971  1.589724
      ESP Fit Center  725 is at  -2.438395  0.653508  1.589724
      ESP Fit Center  726 is at  -2.507844  0.248481  1.589724
      ESP Fit Center  727 is at  -1.842925 -1.633424  1.589724
      ESP Fit Center  728 is at  -1.534446 -1.904920  1.589724
      ESP Fit Center  729 is at  -1.184520 -2.120377  1.589724
      ESP Fit Center  730 is at   2.493725  0.452830  1.229074
      ESP Fit Center  731 is at   2.397759  0.852557  1.229074
      ESP Fit Center  732 is at   2.240443  1.232350  1.229074
      ESP Fit Center  733 is at  -1.946198  1.895449  1.229074
      ESP Fit Center  734 is at  -2.213177  1.582857  1.229074
      ESP Fit Center  735 is at  -2.427968  1.232350  1.229074
      ESP Fit Center  736 is at  -2.585283  0.852557  1.229074
      ESP Fit Center  737 is at  -1.283099 -2.291193  1.229074
      ESP Fit Center  738 is at   2.669578  0.043013  0.844068
      ESP Fit Center  739 is at   2.638713  0.454867  0.844068
      ESP Fit Center  740 is at   2.546810  0.857521  0.844068
      ESP Fit Center  741 is at   2.395921  1.241981  0.844068
      ESP Fit Center  742 is at  -2.119434  1.922561  0.844068
      ESP Fit Center  743 is at  -2.376941  1.599657  0.844068
      ESP Fit Center  744 is at  -2.583445  1.241981  0.844068
      ESP Fit Center  745 is at  -1.103324 -2.529308  0.844068
      ESP Fit Center  746 is at  -0.708663 -2.651044  0.844068
      ESP Fit Center  747 is at   2.487386  1.253005  0.442545
      ESP Fit Center  748 is at  -2.350070  1.785277  0.442545
      ESP Fit Center  749 is at  -2.579701  1.438189  0.442545
      ESP Fit Center  750 is at  -1.014193 -2.654990  0.442545
      ESP Fit Center  751 is at  -0.611552 -2.760254  0.442545
      ESP Fit Center  752 is at  -0.197875 -2.805771  0.442545
      ESP Fit Center  753 is at   2.329048  1.600058  0.032678
      ESP Fit Center  754 is at  -2.270321  1.929012  0.032678
      ESP Fit Center  755 is at  -2.516572  1.600058  0.032678
      ESP Fit Center  756 is at  -0.905152 -2.720327  0.032678
      ESP Fit Center  757 is at  -0.503629 -2.807673  0.032678
      ESP Fit Center  758 is at  -0.093762 -2.836987  0.032678
      ESP Fit Center  759 is at   0.316104 -2.807673  0.032678
      ESP Fit Center  760 is at   0.717628 -2.720327  0.032678
      ESP Fit Center  761 is at  -2.072350  2.095231 -0.377188
      ESP Fit Center  762 is at  -2.350070  1.785277 -0.377188
      ESP Fit Center  763 is at  -1.014193 -2.654990 -0.377188
      ESP Fit Center  764 is at  -0.611552 -2.760254 -0.377188
      ESP Fit Center  765 is at  -0.197875 -2.805771 -0.377188
      ESP Fit Center  766 is at   0.218021 -2.790572 -0.377188
      ESP Fit Center  767 is at   0.627271 -2.714979 -0.377188
      ESP Fit Center  768 is at   1.021154 -2.580605 -0.377188
      ESP Fit Center  769 is at   1.391275 -2.390313 -0.377188
      ESP Fit Center  770 is at  -1.816676  2.203479 -0.778711
      ESP Fit Center  771 is at  -2.119434  1.922561 -0.778711
      ESP Fit Center  772 is at  -2.376941  1.599657 -0.778711
      ESP Fit Center  773 is at  -0.708663 -2.651044 -0.778711
      ESP Fit Center  774 is at  -0.300267 -2.712600 -0.778711
      ESP Fit Center  775 is at   0.112742 -2.712600 -0.778711
      ESP Fit Center  776 is at   0.521139 -2.651044 -0.778711
      ESP Fit Center  777 is at   1.758674  1.895449 -1.163717
      ESP Fit Center  778 is at  -1.633607  2.162427 -1.163717
      ESP Fit Center  779 is at  -1.946198  1.895449 -1.163717
      ESP Fit Center  780 is at  -2.213177  1.582857 -1.163717
      ESP Fit Center  781 is at  -0.903306 -2.448508 -1.163717
      ESP Fit Center  782 is at  -0.503580 -2.544474 -1.163717
      ESP Fit Center  783 is at  -0.093762 -2.576728 -1.163717
      ESP Fit Center  784 is at   0.316055 -2.544474 -1.163717
      ESP Fit Center  785 is at   1.506927  1.861749 -1.524367
      ESP Fit Center  786 is at  -1.184520  2.206402 -1.524367
      ESP Fit Center  787 is at  -1.534446  1.990945 -1.524367
      ESP Fit Center  788 is at  -1.842925  1.719449 -1.524367
      ESP Fit Center  789 is at  -2.101084  1.399725 -1.524367
      ESP Fit Center  790 is at  -0.803216 -2.273598 -1.524367
      ESP Fit Center  791 is at  -0.401502 -2.360174 -1.524367
      ESP Fit Center  792 is at   1.168766  1.815985 -1.853320
      ESP Fit Center  793 is at   0.810413  2.022880 -1.853320
      ESP Fit Center  794 is at   0.419381  2.158218 -1.853320
      ESP Fit Center  795 is at   0.009803  2.217106 -1.853320
      ESP Fit Center  796 is at  -0.403519  2.197417 -1.853320
      ESP Fit Center  797 is at  -0.805645  2.099862 -1.853320
      ESP Fit Center  798 is at  -1.182042  1.927968 -1.853320
      ESP Fit Center  799 is at  -1.519105  1.687946 -1.853320
      ESP Fit Center  800 is at  -1.804653  1.388472 -1.853320
      ESP Fit Center  801 is at  -0.805645 -2.013837 -1.853320
      ESP Fit Center  802 is at  -0.403519 -2.111392 -1.853320
      ESP Fit Center  803 is at   0.724542  1.742239 -2.143880
      ESP Fit Center  804 is at   0.325912  1.881726 -2.143880
      ESP Fit Center  805 is at  -0.093762  1.929012 -2.143880
      ESP Fit Center  806 is at  -0.513437  1.881726 -2.143880
      ESP Fit Center  807 is at  -0.912067  1.742239 -2.143880
      ESP Fit Center  808 is at  -1.269663  1.517546 -2.143880
      ESP Fit Center  809 is at  -1.568296  1.218914 -2.143880
      ESP Fit Center  810 is at  -1.792989  0.861317 -2.143880
      ESP Fit Center  811 is at  -0.912067 -1.656214 -2.143880
      ESP Fit Center  812 is at  -0.513437 -1.795700 -2.143880
      ESP Fit Center  813 is at   0.223028  1.567491 -2.390132
      ESP Fit Center  814 is at  -0.200019  1.596428 -2.390132
      ESP Fit Center  815 is at  -0.615185  1.510156 -2.390132
      ESP Fit Center  816 is at  -0.991680  1.315072 -2.390132
      ESP Fit Center  817 is at  -1.301580  1.025645 -2.390132
      ESP Fit Center  818 is at  -1.521902  0.663341 -2.390132
      ESP Fit Center  819 is at  -0.991680 -1.229047 -2.390132
      ESP Fit Center  820 is at   0.113990  1.221232 -2.587062
      ESP Fit Center  821 is at  -0.301514  1.221232 -2.587062
      ESP Fit Center  822 is at  -0.691960  1.079121 -2.587062
      ESP Fit Center  823 is at  -1.010254  0.812041 -2.587062
      ESP Fit Center  824 is at  -1.218006  0.452204 -2.587062
      ESP Fit Center  825 is at  -1.290157  0.043013 -2.587062
      ESP Fit Center  826 is at  -1.218006 -0.366179 -2.587062
      ESP Fit Center  827 is at  -1.010254 -0.726015 -2.587062
      ESP Fit Center  828 is at  -0.499457  0.745697 -2.730661
      ESP Fit Center  829 is at  -0.796446  0.448707 -2.730661
      ESP Fit Center  830 is at  -0.905152  0.043013 -2.730661
      ESP Fit Center  831 is at  -0.796446 -0.362682 -2.730661
      ESP Fit Center  832 is at  -2.626894 -0.215552  1.625114
      ESP Fit Center  833 is at  -2.626894 -0.648909  1.625114
      ESP Fit Center  834 is at  -2.470347 -1.053003  1.625114
      ESP Fit Center  835 is at  -2.178396 -1.373259  1.625114
      ESP Fit Center  836 is at  -2.737282  0.383639  1.376007
      ESP Fit Center  837 is at  -2.915714 -0.007074  1.376007
      ESP Fit Center  838 is at  -2.976842 -0.432230  1.376007
      ESP Fit Center  839 is at  -2.915714 -0.857387  1.376007
      ESP Fit Center  840 is at  -2.737282 -1.248100  1.376007
      ESP Fit Center  841 is at  -2.456000 -1.572716  1.376007
      ESP Fit Center  842 is at  -2.094658 -1.804936  1.376007
      ESP Fit Center  843 is at  -2.694461  0.867993  1.070529
      ESP Fit Center  844 is at  -2.961248  0.550049  1.070529
      ESP Fit Center  845 is at  -3.147520  0.179151  1.070529
      ESP Fit Center  846 is at  -3.243236 -0.224708  1.070529
      ESP Fit Center  847 is at  -3.243236 -0.639753  1.070529
      ESP Fit Center  848 is at  -3.147520 -1.043611  1.070529
      ESP Fit Center  849 is at  -2.961248 -1.414510  1.070529
      ESP Fit Center  850 is at  -2.694461 -1.732453  1.070529
      ESP Fit Center  851 is at  -2.361543 -1.980302  1.070529
      ESP Fit Center  852 is at  -1.980442 -2.144693  1.070529
      ESP Fit Center  853 is at  -1.571701 -2.216765  1.070529
      ESP Fit Center  854 is at  -2.809482  1.057898  0.719081
      ESP Fit Center  855 is at  -3.089977  0.746376  0.719081
      ESP Fit Center  856 is at  -3.299574  0.383344  0.719081
      ESP Fit Center  857 is at  -3.429112 -0.015333  0.719081
      ESP Fit Center  858 is at  -3.472930 -0.432230  0.719081
      ESP Fit Center  859 is at  -3.429112 -0.849128  0.719081
      ESP Fit Center  860 is at  -3.299574 -1.247805  0.719081
      ESP Fit Center  861 is at  -3.089977 -1.610837  0.719081
      ESP Fit Center  862 is at  -2.809482 -1.922359  0.719081
      ESP Fit Center  863 is at  -2.470347 -2.168755  0.719081
      ESP Fit Center  864 is at  -2.087394 -2.339256  0.719081
      ESP Fit Center  865 is at  -1.677361 -2.426412  0.719081
      ESP Fit Center  866 is at  -2.664734  1.359162  0.333633
      ESP Fit Center  867 is at  -2.991218  1.091224  0.333633
      ESP Fit Center  868 is at  -3.259157  0.764740  0.333633
      ESP Fit Center  869 is at  -3.458253  0.392257  0.333633
      ESP Fit Center  870 is at  -3.580856 -0.011910  0.333633
      ESP Fit Center  871 is at  -3.622254 -0.432230  0.333633
      ESP Fit Center  872 is at  -3.580856 -0.852550  0.333633
      ESP Fit Center  873 is at  -3.458253 -1.256718  0.333633
      ESP Fit Center  874 is at  -3.259157 -1.629201  0.333633
      ESP Fit Center  875 is at  -2.991218 -1.955685  0.333633
      ESP Fit Center  876 is at  -2.664734 -2.223623  0.333633
      ESP Fit Center  877 is at  -2.292252 -2.422719  0.333633
      ESP Fit Center  878 is at  -1.888084 -2.545322  0.333633
      ESP Fit Center  879 is at  -1.467764 -2.586720  0.333633
      ESP Fit Center  880 is at  -2.582986  1.499391 -0.072691
      ESP Fit Center  881 is at  -2.928395  1.253427 -0.072691
      ESP Fit Center  882 is at  -3.221012  0.946539 -0.072691
      ESP Fit Center  883 is at  -3.450262  0.589818 -0.072691
      ESP Fit Center  884 is at  -3.607860  0.196158 -0.072691
      ESP Fit Center  885 is at  -3.688109 -0.220213 -0.072691
      ESP Fit Center  886 is at  -3.688109 -0.644248 -0.072691
      ESP Fit Center  887 is at  -3.607860 -1.060619 -0.072691
      ESP Fit Center  888 is at  -3.450262 -1.454279 -0.072691
      ESP Fit Center  889 is at  -3.221012 -1.811000 -0.072691
      ESP Fit Center  890 is at  -2.928395 -2.117888 -0.072691
      ESP Fit Center  891 is at  -2.582986 -2.363852 -0.072691
      ESP Fit Center  892 is at  -2.197271 -2.540002 -0.072691
      ESP Fit Center  893 is at  -1.785190 -2.639972 -0.072691
      ESP Fit Center  894 is at  -1.361635 -2.660149 -0.072691
      ESP Fit Center  895 is at  -2.582986  1.499391 -0.486054
      ESP Fit Center  896 is at  -2.928395  1.253427 -0.486054
      ESP Fit Center  897 is at  -3.221012  0.946539 -0.486054
      ESP Fit Center  898 is at  -3.450262  0.589818 -0.486054
      ESP Fit Center  899 is at  -3.607860  0.196158 -0.486054
      ESP Fit Center  900 is at  -3.688109 -0.220213 -0.486054
      ESP Fit Center  901 is at  -3.688109 -0.644248 -0.486054
      ESP Fit Center  902 is at  -3.607860 -1.060619 -0.486054
      ESP Fit Center  903 is at  -3.450262 -1.454279 -0.486054
      ESP Fit Center  904 is at  -3.221012 -1.811000 -0.486054
      ESP Fit Center  905 is at  -2.928395 -2.117888 -0.486054
      ESP Fit Center  906 is at  -2.582986 -2.363852 -0.486054
      ESP Fit Center  907 is at  -2.197271 -2.540002 -0.486054
      ESP Fit Center  908 is at  -1.785190 -2.639972 -0.486054
      ESP Fit Center  909 is at  -1.361635 -2.660149 -0.486054
      ESP Fit Center  910 is at  -2.664734  1.359162 -0.892378
      ESP Fit Center  911 is at  -2.991218  1.091224 -0.892378
      ESP Fit Center  912 is at  -3.259157  0.764740 -0.892378
      ESP Fit Center  913 is at  -3.458253  0.392257 -0.892378
      ESP Fit Center  914 is at  -3.580856 -0.011910 -0.892378
      ESP Fit Center  915 is at  -3.622254 -0.432230 -0.892378
      ESP Fit Center  916 is at  -3.580856 -0.852550 -0.892378
      ESP Fit Center  917 is at  -3.458253 -1.256718 -0.892378
      ESP Fit Center  918 is at  -3.259157 -1.629201 -0.892378
      ESP Fit Center  919 is at  -2.991218 -1.955685 -0.892378
      ESP Fit Center  920 is at  -2.664734 -2.223623 -0.892378
      ESP Fit Center  921 is at  -2.292252 -2.422719 -0.892378
      ESP Fit Center  922 is at  -1.888084 -2.545322 -0.892378
      ESP Fit Center  923 is at  -1.467764 -2.586720 -0.892378
      ESP Fit Center  924 is at  -1.047444 -2.545322 -0.892378
      ESP Fit Center  925 is at  -2.470347  1.304294 -1.277826
[...]
 2766 Fit      -0.287766
 2767 Fit      -0.287394
 2768 Fit      -0.282443
 2769 Fit      -0.278448
 2770 Fit      -0.275320
 2771 Fit      -0.273002
 2772 Fit      -0.271463
 2773 Fit      -0.270689
 2774 Fit      -0.270677
 2775 Fit      -0.271436
 2776 Fit      -0.272990
 2777 Fit      -0.275383
 2778 Fit      -0.278690
 2779 Fit      -0.283040
 2780 Fit      -0.288641
 2781 Fit      -0.284758
 2782 Fit      -0.279993
 2783 Fit      -0.276092
 2784 Fit      -0.272986
 2785 Fit      -0.270634
 2786 Fit      -0.269014
 2787 Fit      -0.268120
 2788 Fit      -0.267954
 2789 Fit      -0.268526
 2790 Fit      -0.269859
 2791 Fit      -0.271990
 2792 Fit      -0.274987
 2793 Fit      -0.278959
 2794 Fit      -0.284087
 2795 Fit      -0.290665
 2796 Fit      -0.288742
 2797 Fit      -0.283147
 2798 Fit      -0.278473
 2799 Fit      -0.274617
 2800 Fit      -0.271511
 2801 Fit      -0.269117
 2802 Fit      -0.267415
 2803 Fit      -0.266401
 2804 Fit      -0.266079
 2805 Fit      -0.266459
 2806 Fit      -0.267561
 2807 Fit      -0.269419
 2808 Fit      -0.272086
 2809 Fit      -0.275652
 2810 Fit      -0.280264
 2811 Fit      -0.286162
 2812 Fit      -0.287254
 2813 Fit      -0.281657
 2814 Fit      -0.277030
 2815 Fit      -0.273238
 2816 Fit      -0.270200
 2817 Fit      -0.267871
 2818 Fit      -0.266231
 2819 Fit      -0.265274
 2820 Fit      -0.265005
 2821 Fit      -0.265437
 2822 Fit      -0.266591
 2823 Fit      -0.268502
 2824 Fit      -0.271225
 2825 Fit      -0.274853
 2826 Fit      -0.279537
 2827 Fit      -0.285519
 2828 Fit      -0.293193
 2829 Fit      -0.285811
 2830 Fit      -0.280179
 2831 Fit      -0.275614
 2832 Fit      -0.271939
 2833 Fit      -0.269056
 2834 Fit      -0.266911
 2835 Fit      -0.265482
 2836 Fit      -0.264763
 2837 Fit      -0.264761
 2838 Fit      -0.265492
 2839 Fit      -0.266983
 2840 Fit      -0.269278
 2841 Fit      -0.272450
 2842 Fit      -0.276616
 2843 Fit      -0.281968
 2844 Fit      -0.288818
 2845 Fit      -0.285051
 2846 Fit      -0.279427
 2847 Fit      -0.274952
 2848 Fit      -0.271417
 2849 Fit      -0.268707
 2850 Fit      -0.266763
 2851 Fit      -0.265559
 2852 Fit      -0.265088
 2853 Fit      -0.265357
 2854 Fit      -0.266385
 2855 Fit      -0.268205
 2856 Fit      -0.270869
 2857 Fit      -0.274467
 2858 Fit      -0.279139
 2859 Fit      -0.285114
 2860 Fit      -0.292751
 2861 Fit      -0.289791
 2862 Fit      -0.282889
 2863 Fit      -0.277562
 2864 Fit      -0.273444
 2865 Fit      -0.270333
 2866 Fit      -0.268124
 2867 Fit      -0.266764
 2868 Fit      -0.266235
 2869 Fit      -0.266540
 2870 Fit      -0.267698
 2871 Fit      -0.269745
 2872 Fit      -0.272748
 2873 Fit      -0.276812
 2874 Fit      -0.282113
 2875 Fit      -0.288924
 2876 Fit      -0.297673
 2877 Fit      -0.286513
 2878 Fit      -0.280243
 2879 Fit      -0.275541
 2880 Fit      -0.272103
 2881 Fit      -0.269766
 2882 Fit      -0.268453
 2883 Fit      -0.268134
 2884 Fit      -0.268811
 2885 Fit      -0.270511
 2886 Fit      -0.273290
 2887 Fit      -0.277246
 2888 Fit      -0.282542
 2889 Fit      -0.289435
 2890 Fit      -0.291051
 2891 Fit      -0.283742
 2892 Fit      -0.278393
 2893 Fit      -0.274603
 2894 Fit      -0.272152
 2895 Fit      -0.270935
 2896 Fit      -0.270911
 2897 Fit      -0.272080
 2898 Fit      -0.274482
 2899 Fit      -0.278193
 2900 Fit      -0.283347
 2901 Fit      -0.290151
 2902 Fit      -0.294978
 2903 Fit      -0.286793
 2904 Fit      -0.280960
 2905 Fit      -0.277063
 2906 Fit      -0.274862
 2907 Fit      -0.274243
 2908 Fit      -0.275169
 2909 Fit      -0.277659
 2910 Fit      -0.281779
 2911 Fit      -0.287637
 2912 Fit      -0.289068
 2913 Fit      -0.283052
 2914 Fit      -0.279617
 2915 Fit      -0.278571
 2916 Fit      -0.279828
 2917 Fit      -0.283369
 2918 Fit      -0.289189
 2919 Fit      -0.291655
 2920 Fit      -0.285813
 2921 Fit      -0.283885
 2922 Fit      -0.285814
 2923 Fit      -0.291323
 2924 Fit      -0.290365
 2925 Fit      -0.292218
 2926 Fit      -0.286719
 2927 Fit      -0.284931
 2928 Fit      -0.284529
 2929 Fit      -0.285525
 2930 Fit      -0.287994
 2931 Fit      -0.292092
 2932 Fit      -0.285873
 2933 Fit      -0.282369
 2934 Fit      -0.280069
 2935 Fit      -0.278895
 2936 Fit      -0.278817
 2937 Fit      -0.279839
 2938 Fit      -0.282002
 2939 Fit      -0.285387
 2940 Fit      -0.290144
 2941 Fit      -0.287852
 2942 Fit      -0.282969
 2943 Fit      -0.279288
 2944 Fit      -0.276656
 2945 Fit      -0.274981
 2946 Fit      -0.274214
 2947 Fit      -0.274334
 2948 Fit      -0.275338
 2949 Fit      -0.277246
 2950 Fit      -0.280096
 2951 Fit      -0.283961
 2952 Fit      -0.288962
 2953 Fit      -0.288738
 2954 Fit      -0.283119
 2955 Fit      -0.278754
 2956 Fit      -0.275435
 2957 Fit      -0.273032
 2958 Fit      -0.271468
 2959 Fit      -0.270699
 2960 Fit      -0.270702
 2961 Fit      -0.271467
 2962 Fit      -0.272996
 2963 Fit      -0.275303
 2964 Fit      -0.278421
 2965 Fit      -0.282403
 2966 Fit      -0.287338
 2967 Fit      -0.290773
 2968 Fit      -0.284173
 2969 Fit      -0.279029
 2970 Fit      -0.275044
 2971 Fit      -0.272036
 2972 Fit      -0.269894
 2973 Fit      -0.268551
 2974 Fit      -0.267970
 2975 Fit      -0.268127
 2976 Fit      -0.269011
 2977 Fit      -0.270620
 2978 Fit      -0.272961
 2979 Fit      -0.276056
 2980 Fit      -0.279943
 2981 Fit      -0.284692
 2982 Fit      -0.286255
 2983 Fit      -0.280339
 2984 Fit      -0.275712
 2985 Fit      -0.272134
 2986 Fit      -0.269456
 2987 Fit      -0.267589
 2988 Fit      -0.266477
 2989 Fit      -0.266088
 2990 Fit      -0.266401
 2991 Fit      -0.267405
 2992 Fit      -0.269096
 2993 Fit      -0.271479
 2994 Fit      -0.274573
 2995 Fit      -0.278415
 2996 Fit      -0.283071
 2997 Fit      -0.288644
 2998 Fit      -0.293305
 2999 Fit      -0.285607
 3000 Fit      -0.279607
 3001 Fit      -0.274910
 3002 Fit      -0.271270
 3003 Fit      -0.268536
 3004 Fit      -0.266616
 3005 Fit      -0.265452
 3006 Fit      -0.265011
 3007 Fit      -0.265270
 3008 Fit      -0.266217
 3009 Fit      -0.267847
 3010 Fit      -0.270164
 3011 Fit      -0.273189
 3012 Fit      -0.276966
 3013 Fit      -0.281573
 3014 Fit      -0.287146
 3015 Fit      -0.288909
 3016 Fit      -0.282040
 3017 Fit      -0.276673
 3018 Fit      -0.272495
 3019 Fit      -0.269313
 3020 Fit      -0.267008
 3021 Fit      -0.265507
 3022 Fit      -0.264767
 3023 Fit      -0.264759
 3024 Fit      -0.265467
 3025 Fit      -0.266886
 3026 Fit      -0.269019
 3027 Fit      -0.271889
 3028 Fit      -0.275548
 3029 Fit      -0.280093
 3030 Fit      -0.285700
 3031 Fit      -0.292841
 3032 Fit      -0.285185
 3033 Fit      -0.279196
 3034 Fit      -0.274511
 3035 Fit      -0.270903
 3036 Fit      -0.268229
 3037 Fit      -0.266400
 3038 Fit      -0.265362
 3039 Fit      -0.265083
 3040 Fit      -0.265544
 3041 Fit      -0.266738
 3042 Fit      -0.268670
 3043 Fit      -0.271366
 3044 Fit      -0.274886
 3045 Fit      -0.279342
 3046 Fit      -0.284940
 3047 Fit      -0.297758
 3048 Fit      -0.288992
 3049 Fit      -0.282166
 3050 Fit      -0.276854
 3051 Fit      -0.272779
 3052 Fit      -0.269766
 3053 Fit      -0.267709
 3054 Fit      -0.266541
 3055 Fit      -0.266226
 3056 Fit      -0.266744
 3057 Fit      -0.268093
 3058 Fit      -0.270290
 3059 Fit      -0.273386
 3060 Fit      -0.277486
 3061 Fit      -0.282789
 3062 Fit      -0.289659
 3063 Fit      -0.289489
 3064 Fit      -0.282584
 3065 Fit      -0.277277
 3066 Fit      -0.273310
 3067 Fit      -0.270522
 3068 Fit      -0.268812
 3069 Fit      -0.268125
 3070 Fit      -0.268433
 3071 Fit      -0.269734
 3072 Fit      -0.272057
 3073 Fit      -0.275479
 3074 Fit      -0.280160
 3075 Fit      -0.286403
 3076 Fit      -0.290188
 3077 Fit      -0.283376
 3078 Fit      -0.278212
 3079 Fit      -0.274492
 3080 Fit      -0.272081
 3081 Fit      -0.270901
 3082 Fit      -0.270914
 3083 Fit      -0.272119
 3084 Fit      -0.274555
 3085 Fit      -0.278328
 3086 Fit      -0.283655
 3087 Fit      -0.290935
 3088 Fit      -0.287656
 3089 Fit      -0.281790
 3090 Fit      -0.277662
 3091 Fit      -0.275162
 3092 Fit      -0.274224
 3093 Fit      -0.274831
 3094 Fit      -0.277018
 3095 Fit      -0.280898
 3096 Fit      -0.286709
 3097 Fit      -0.294866
 3098 Fit      -0.289194
 3099 Fit      -0.283367
 3100 Fit      -0.279817
 3101 Fit      -0.278548
 3102 Fit      -0.279580
 3103 Fit      -0.282999
 3104 Fit      -0.288994
 3105 Fit      -0.291312
 3106 Fit      -0.285797
 3107 Fit      -0.283857
 3108 Fit      -0.285769
 3109 Fit      -0.291592
 3110 Fit      -0.290331
 3111 Fit      -0.264503
 3112 Fit      -0.262093
 3113 Fit      -0.263513
 3114 Fit      -0.266220
 3115 Fit      -0.267486
 3116 Fit      -0.266218
 3117 Fit      -0.263512
 3118 Fit      -0.260226
 3119 Fit      -0.261036
 3120 Fit      -0.263209
 3121 Fit      -0.266063
 3122 Fit      -0.268722
 3123 Fit      -0.270488
 3124 Fit      -0.271084
 3125 Fit      -0.270485
 3126 Fit      -0.268719
 3127 Fit      -0.266060
 3128 Fit      -0.263207
 3129 Fit      -0.261035
 3130 Fit      -0.258872
 3131 Fit      -0.259447
 3132 Fit      -0.261089
 3133 Fit      -0.263566
 3134 Fit      -0.266522
 3135 Fit      -0.269516
 3136 Fit      -0.272103
 3137 Fit      -0.273968
 3138 Fit      -0.275024
 3139 Fit      -0.275354
 3140 Fit      -0.275021
 3141 Fit      -0.273963
 3142 Fit      -0.272097
 3143 Fit      -0.269511
 3144 Fit      -0.266519
 3145 Fit      -0.263564
 3146 Fit      -0.261087
 3147 Fit      -0.259446
 3148 Fit      -0.257995
 3149 Fit      -0.258449
 3150 Fit      -0.259774
 3151 Fit      -0.261867
 3152 Fit      -0.264567
 3153 Fit      -0.267660
 3154 Fit      -0.270880
 3155 Fit      -0.273927
 3156 Fit      -0.276508
 3157 Fit      -0.278419
 3158 Fit      -0.279617
 3159 Fit      -0.280217
 3160 Fit      -0.280389
 3161 Fit      -0.280212
 3162 Fit      -0.279608
 3163 Fit      -0.278409
 3164 Fit      -0.276499
 3165 Fit      -0.273920
 3166 Fit      -0.270875
 3167 Fit      -0.267656
 3168 Fit      -0.264564
 3169 Fit      -0.261865
 3170 Fit      -0.259773
 3171 Fit      -0.258448
 3172 Fit      -0.257546
 3173 Fit      -0.257957
 3174 Fit      -0.259163
 3175 Fit      -0.261100
 3176 Fit      -0.263669
 3177 Fit      -0.266746
 3178 Fit      -0.270174
 3179 Fit      -0.273759
 3180 Fit      -0.277258
 3181 Fit      -0.280400
 3182 Fit      -0.282933
 3183 Fit      -0.284705
 3184 Fit      -0.285730
 3185 Fit      -0.286184
 3186 Fit      -0.286320
 3187 Fit      -0.286316
 3188 Fit      -0.286174
 3189 Fit      -0.285715
 3190 Fit      -0.284690
 3191 Fit      -0.282920
 3192 Fit      -0.280390
 3193 Fit      -0.277251
 3194 Fit      -0.273754
 3195 Fit      -0.270171
 3196 Fit      -0.266743
 3197 Fit      -0.263667
 3198 Fit      -0.261098
 3199 Fit      -0.259161
 3200 Fit      -0.257956
 3201 Fit      -0.257462
 3202 Fit      -0.257867
 3203 Fit      -0.259061
 3204 Fit      -0.260989
 3205 Fit      -0.263573
 3206 Fit      -0.266723
 3207 Fit      -0.270341
 3208 Fit      -0.274302
 3209 Fit      -0.278443
 3210 Fit      -0.282539
 3211 Fit      -0.286308
 3212 Fit      -0.289448
 3213 Fit      -0.291718
 3214 Fit      -0.291696
 3215 Fit      -0.289431
 3216 Fit      -0.286297
 3217 Fit      -0.282533
 3218 Fit      -0.278439
 3219 Fit      -0.274300
 3220 Fit      -0.270338
 3221 Fit      -0.266720
 3222 Fit      -0.263570
 3223 Fit      -0.260986
 3224 Fit      -0.259059
 3225 Fit      -0.257866
 3226 Fit      -0.257654
 3227 Fit      -0.258062
 3228 Fit      -0.259264
 3229 Fit      -0.261205
 3230 Fit      -0.263814
 3231 Fit      -0.267017
 3232 Fit      -0.270749
 3233 Fit      -0.274943
 3234 Fit      -0.279515
 3235 Fit      -0.284333
 3236 Fit      -0.289191
 3237 Fit      -0.293796
 3238 Fit      -0.293785
 3239 Fit      -0.289186
 3240 Fit      -0.284331
 3241 Fit      -0.279514
 3242 Fit      -0.274942
 3243 Fit      -0.270747
 3244 Fit      -0.267014
 3245 Fit      -0.263810
 3246 Fit      -0.261201
 3247 Fit      -0.259261
 3248 Fit      -0.258061
 3249 Fit      -0.258001
 3250 Fit      -0.258447
 3251 Fit      -0.259753
 3252 Fit      -0.261851
 3253 Fit      -0.264654
 3254 Fit      -0.268086
 3255 Fit      -0.272091
 3256 Fit      -0.276640
 3257 Fit      -0.281707
 3258 Fit      -0.287243
 3259 Fit      -0.287246
 3260 Fit      -0.281708
 3261 Fit      -0.276639
 3262 Fit      -0.272088
 3263 Fit      -0.268081
 3264 Fit      -0.264648
 3265 Fit      -0.261845
 3266 Fit      -0.259748
 3267 Fit      -0.258444
 3268 Fit      -0.258328
 3269 Fit      -0.258881
 3270 Fit      -0.260490
 3271 Fit      -0.263038
 3272 Fit      -0.266389
 3273 Fit      -0.270433
 3274 Fit      -0.275118
 3275 Fit      -0.280448
 3276 Fit      -0.286466
 3277 Fit      -0.286470
 3278 Fit      -0.280447
 3279 Fit      -0.275112
 3280 Fit      -0.270425
 3281 Fit      -0.266379
 3282 Fit      -0.263029
 3283 Fit      -0.260483
 3284 Fit      -0.258877
 3285 Fit      -0.261141
 3286 Fit      -0.264337
 3287 Fit      -0.268429
 3288 Fit      -0.273244
 3289 Fit      -0.278724
 3290 Fit      -0.278714
 3291 Fit      -0.273230
 3292 Fit      -0.268413
 3293 Fit      -0.264323
 3294 Fit      -0.261130
 3295 Fit      -0.266441
 3296 Fit      -0.266493
 3297 Fit      -0.250813
 3298 Fit      -0.260427
 3299 Fit      -0.271772
 3300 Fit      -0.271857
 3301 Fit      -0.260473
 3302 Fit      -0.250830
 3303 Fit      -0.235004
 3304 Fit      -0.241255
 3305 Fit      -0.248769
 3306 Fit      -0.257640
 3307 Fit      -0.268112
 3308 Fit      -0.280643
 3309 Fit      -0.280774
 3310 Fit      -0.268195
 3311 Fit      -0.257688
 3312 Fit      -0.248790
 3313 Fit      -0.241258
 3314 Fit      -0.234996
 3315 Fit      -0.224866
 3316 Fit      -0.225570
 3317 Fit      -0.227659
 3318 Fit      -0.231080
 3319 Fit      -0.235768
 3320 Fit      -0.241679
 3321 Fit      -0.248818
 3322 Fit      -0.257275
 3323 Fit      -0.267270
 3324 Fit      -0.279197
 3325 Fit      -0.279330
 3326 Fit      -0.267358
 3327 Fit      -0.257330
 3328 Fit      -0.248847
 3329 Fit      -0.241691
 3330 Fit      -0.235769
 3331 Fit      -0.231074
 3332 Fit      -0.227653
 3333 Fit      -0.225566
 3334 Fit      -0.227111
 3335 Fit      -0.227761
 3336 Fit      -0.229691
 3337 Fit      -0.232862
 3338 Fit      -0.237224
 3339 Fit      -0.242743
 3340 Fit      -0.249424
 3341 Fit      -0.257340
 3342 Fit      -0.266660
 3343 Fit      -0.277671
 3344 Fit      -0.277801
 3345 Fit      -0.266750
 3346 Fit      -0.257400
 3347 Fit      -0.249460
 3348 Fit      -0.242762
 3349 Fit      -0.237232
 3350 Fit      -0.232863
 3351 Fit      -0.229689
 3352 Fit      -0.227759
 3353 Fit      -0.229913
 3354 Fit      -0.230570
 3355 Fit      -0.232527
 3356 Fit      -0.235744
 3357 Fit      -0.240177
 3358 Fit      -0.245794
 3359 Fit      -0.252603
 3360 Fit      -0.260674
 3361 Fit      -0.270150
 3362 Fit      -0.281241
 3363 Fit      -0.281379
 3364 Fit      -0.270252
 3365 Fit      -0.260746
 3366 Fit      -0.252651
 3367 Fit      -0.245824
 3368 Fit      -0.240194
 3369 Fit      -0.235752
 3370 Fit      -0.232530
 3371 Fit      -0.230571
 3372 Fit      -0.233159
 3373 Fit      -0.233862
 3374 Fit      -0.235956
 3375 Fit      -0.239397
 3376 Fit      -0.244133
 3377 Fit      -0.250126
 3378 Fit      -0.257372
 3379 Fit      -0.265909
 3380 Fit      -0.275793
 3381 Fit      -0.287021
 3382 Fit      -0.287165
 3383 Fit      -0.275907
 3384 Fit      -0.265994
 3385 Fit      -0.257432
 3386 Fit      -0.250166
 3387 Fit      -0.244158
 3388 Fit      -0.239412
 3389 Fit      -0.235963
 3390 Fit      -0.233865
 3391 Fit      -0.236793
 3392 Fit      -0.237548
 3393 Fit      -0.239796
 3394 Fit      -0.243480
 3395 Fit      -0.248528
 3396 Fit      -0.254866
 3397 Fit      -0.262430
 3398 Fit      -0.271128
 3399 Fit      -0.280758
 3400 Fit      -0.290862
 3401 Fit      -0.290988
 3402 Fit      -0.280869
 3403 Fit      -0.271218
 3404 Fit      -0.262499
 3405 Fit      -0.254916
 3406 Fit      -0.248561
 3407 Fit      -0.243501
 3408 Fit      -0.239808
 3409 Fit      -0.237553
 3410 Fit      -0.240801
 3411 Fit      -0.241681
 3412 Fit      -0.244294
 3413 Fit      -0.248537
 3414 Fit      -0.254264
 3415 Fit      -0.261281
 3416 Fit      -0.269307
 3417 Fit      -0.277867
 3418 Fit      -0.286188
 3419 Fit      -0.286277
 3420 Fit      -0.277953
 3421 Fit      -0.269380
 3422 Fit      -0.261339
 3423 Fit      -0.254305
 3424 Fit      -0.248565
 3425 Fit      -0.244310
 3426 Fit      -0.241689
 3427 Fit      -0.245211
 3428 Fit      -0.246387
 3429 Fit      -0.249828
 3430 Fit      -0.255257
 3431 Fit      -0.262214
 3432 Fit      -0.269986
 3433 Fit      -0.277526
 3434 Fit      -0.283592
 3435 Fit      -0.283639
 3436 Fit      -0.277585
 3437 Fit      -0.270043
 3438 Fit      -0.262261
 3439 Fit      -0.255291
 3440 Fit      -0.249849
 3441 Fit      -0.246397
 3442 Fit      -0.250098
 3443 Fit      -0.251859
 3444 Fit      -0.256777
 3445 Fit      -0.263725
 3446 Fit      -0.270865
 3447 Fit      -0.276063
 3448 Fit      -0.277919
 3449 Fit      -0.276085
 3450 Fit      -0.270900
 3451 Fit      -0.263760
 3452 Fit      -0.256802
 3453 Fit      -0.251872
 3454 Fit      -0.255588
 3455 Fit      -0.258932
 3456 Fit      -0.265756
 3457 Fit      -0.269194
 3458 Fit      -0.265772
 3459 Fit      -0.258945
 3460 Fit      -0.261866
 3461 Fit      -0.249782
 3462 Fit      -0.252059
 3463 Fit      -0.259033
 3464 Fit      -0.259030
 3465 Fit      -0.252057
 3466 Fit      -0.234588
 3467 Fit      -0.236229
 3468 Fit      -0.241222
 3469 Fit      -0.249792
 3470 Fit      -0.262348
 3471 Fit      -0.262339
 3472 Fit      -0.249782
 3473 Fit      -0.241214
 3474 Fit      -0.236225
 3475 Fit      -0.223964
 3476 Fit      -0.225201
 3477 Fit      -0.228948
 3478 Fit      -0.235328
 3479 Fit      -0.244561
 3480 Fit      -0.256980
 3481 Fit      -0.256962
 3482 Fit      -0.244542
 3483 Fit      -0.235312
 3484 Fit      -0.228936
 3485 Fit      -0.225195
 3486 Fit      -0.217024
 3487 Fit      -0.218113
 3488 Fit      -0.221403
 3489 Fit      -0.226989
 3490 Fit      -0.235041
 3491 Fit      -0.245810
 3492 Fit      -0.259654
 3493 Fit      -0.259625
 3494 Fit      -0.245780
 3495 Fit      -0.235014
 3496 Fit      -0.226968
 3497 Fit      -0.221388
 3498 Fit      -0.218105
 3499 Fit      -0.213211
 3500 Fit      -0.214180
 3501 Fit      -0.217100
 3502 Fit      -0.222049
 3503 Fit      -0.229159
 3504 Fit      -0.238629
 3505 Fit      -0.250742
 3506 Fit      -0.250699
 3507 Fit      -0.238589
 3508 Fit      -0.229126
 3509 Fit      -0.222023
 3510 Fit      -0.217083
 3511 Fit      -0.214171
 3512 Fit      -0.212190
 3513 Fit      -0.213108
 3514 Fit      -0.215872
 3515 Fit      -0.220552
 3516 Fit      -0.227266
 3517 Fit      -0.236193
 3518 Fit      -0.247588
 3519 Fit      -0.247532
 3520 Fit      -0.236144
 3521 Fit      -0.227225
 3522 Fit      -0.220521
 3523 Fit      -0.215851
 3524 Fit      -0.213097
 3525 Fit      -0.213784
 3526 Fit      -0.214756
 3527 Fit      -0.217687
 3528 Fit      -0.222653
 3529 Fit      -0.229787
 3530 Fit      -0.239290
 3531 Fit      -0.239229
 3532 Fit      -0.229738
 3533 Fit      -0.222616
 3534 Fit      -0.217663
 3535 Fit      -0.214744
 3536 Fit      -0.217938
 3537 Fit      -0.219031
 3538 Fit      -0.222327
 3539 Fit      -0.227919
 3540 Fit      -0.227875
 3541 Fit      -0.222298
 3542 Fit      -0.219017
 -----------------------------------------------------------------
 Leave Link  602 at Sat Aug  6 13:53:02 2016, MaxMem=    33554432 cpu:         0.2


 The arm of the moral universe is long, but it bends toward justice.
 -- Martin Luther King, Jr.
 Error termination request processed by link 9999.
 Error termination via Lnk1e in /usr/common/software/g09/d1/g09/l9999.exe at Sat Aug  6 13:53:02 2016.
 Job cpu time:       0 days  0 hours  0 minutes 42.7 seconds.
 File lengths (MBytes):  RWF=      5 Int=      0 D2E=      0 Chk=      2 Scr=      1
