 Entering Gaussian System, Link 0=g09
 Input=G3H_minus2.gau
 Output=G3H_minus2.log
 Initial command:
 /usr/common/usg/g09/c1/g09/l1.exe /scratch/scratchdirs/nmih/Gau-14577.inp -scrdir=/scratch/scratchdirs/nmih/
 Entering Link 1 = /usr/common/usg/g09/c1/g09/l1.exe PID=     14578.
  
 Copyright (c) 1988,1990,1992,1993,1995,1998,2003,2009,2011,
            Gaussian, Inc.  All Rights Reserved.
  
 This is part of the Gaussian(R) 09 program.  It is based on
 the Gaussian(R) 03 system (copyright 2003, Gaussian, Inc.),
 the Gaussian(R) 98 system (copyright 1998, Gaussian, Inc.),
 the Gaussian(R) 94 system (copyright 1995, Gaussian, Inc.),
 the Gaussian 92(TM) system (copyright 1992, Gaussian, Inc.),
 the Gaussian 90(TM) system (copyright 1990, Gaussian, Inc.),
 the Gaussian 88(TM) system (copyright 1988, Gaussian, Inc.),
 the Gaussian 86(TM) system (copyright 1986, Carnegie Mellon
 University), and the Gaussian 82(TM) system (copyright 1983,
 Carnegie Mellon University). Gaussian is a federally registered
 trademark of Gaussian, Inc.
  
 This software contains proprietary and confidential information,
 including trade secrets, belonging to Gaussian, Inc.
  
 This software is provided under written license and may be
 used, copied, transmitted, or stored only in accord with that
 written license.
  
 The following legend is applicable only to US Government
 contracts under FAR:
  
                    RESTRICTED RIGHTS LEGEND
  
 Use, reproduction and disclosure by the US Government is
 subject to restrictions as set forth in subparagraphs (a)
 and (c) of the Commercial Computer Software - Restricted
 Rights clause in FAR 52.227-19.
  
 Gaussian, Inc.
 340 Quinnipiac St., Bldg. 40, Wallingford CT 06492
  
  
 ---------------------------------------------------------------
 Warning -- This program may not be used in any manner that
 competes with the business of Gaussian, Inc. or will provide
 assistance to any competitor of Gaussian, Inc.  The licensee
 of this program is prohibited from giving any competitor of
 Gaussian, Inc. access to this program.  By using this program,
 the user acknowledges that Gaussian, Inc. is engaged in the
 business of creating and licensing software in the field of
 computational chemistry and represents and warrants to the
 licensee that it is not a competitor of Gaussian, Inc. and that
 it will not use this program in any manner prohibited above.
 ---------------------------------------------------------------
  

 Cite this work as:
 Gaussian 09, Revision C.01,
 M. J. Frisch, G. W. Trucks, H. B. Schlegel, G. E. Scuseria, 
 M. A. Robb, J. R. Cheeseman, G. Scalmani, V. Barone, B. Mennucci, 
 G. A. Petersson, H. Nakatsuji, M. Caricato, X. Li, H. P. Hratchian, 
 A. F. Izmaylov, J. Bloino, G. Zheng, J. L. Sonnenberg, M. Hada, 
 M. Ehara, K. Toyota, R. Fukuda, J. Hasegawa, M. Ishida, T. Nakajima, 
 Y. Honda, O. Kitao, H. Nakai, T. Vreven, J. A. Montgomery, Jr., 
 J. E. Peralta, F. Ogliaro, M. Bearpark, J. J. Heyd, E. Brothers, 
 K. N. Kudin, V. N. Staroverov, T. Keith, R. Kobayashi, J. Normand, 
 K. Raghavachari, A. Rendell, J. C. Burant, S. S. Iyengar, J. Tomasi, 
 M. Cossi, N. Rega, J. M. Millam, M. Klene, J. E. Knox, J. B. Cross, 
 V. Bakken, C. Adamo, J. Jaramillo, R. Gomperts, R. E. Stratmann, 
 O. Yazyev, A. J. Austin, R. Cammi, C. Pomelli, J. W. Ochterski, 
 R. L. Martin, K. Morokuma, V. G. Zakrzewski, G. A. Voth, 
 P. Salvador, J. J. Dannenberg, S. Dapprich, A. D. Daniels, 
 O. Farkas, J. B. Foresman, J. V. Ortiz, J. Cioslowski, 
 and D. J. Fox, Gaussian, Inc., Wallingford CT, 2010.
 
 ******************************************
 Gaussian 09:  AM64L-G09RevC.01 23-Sep-2011
                19-Jul-2015 
 ******************************************
 %chk=G3H_minus2
 ------------------------------------------------------------
 #HF/6-31G* SCF=tight Test Pop=MK iop(6/33=2) iop(6/42=6) opt
 ------------------------------------------------------------
 1/18=20,19=15,38=1/1,3;
 2/9=110,12=2,17=6,18=5,40=1/2;
 3/5=1,6=6,7=1,11=9,16=1,25=1,30=1,71=1/1,2,3;
 4//1;
 5/5=2,32=2,38=5/2;
 6/7=2,8=2,9=2,10=2,15=8,20=1,28=1,33=2,42=6/1,2;
 7//1,2,3,16;
 1/18=20,19=15/3(2);
 2/9=110/2;
 99//99;
 2/9=110/2;
 3/5=1,6=6,7=1,11=9,16=1,25=1,30=1,71=1/1,2,3;
 4/5=5,16=3/1;
 5/5=2,32=2,38=5/2;
 7//1,2,3,16;
 1/18=20,19=15/3(-5);
 2/9=110/2;
 6/7=2,8=2,9=2,10=2,15=8,19=2,20=1,28=1,33=2,42=6/1,2;
 99/9=1/99;
 --------
 15 atoms
 --------
 Charge = -2 Multiplicity = 1
 Symbolic Z-Matrix:
 P                    -2.1784    0.1012   -0.0449 
 O                    -0.6295    0.057     0.526 
 O                     2.5796   -1.4554   -0.108 
 O                    -2.9471    0.8136    1.0639 
 O                    -2.5667   -1.3633   -0.226 
 O                    -2.0897    0.894    -1.3455 
 O                     3.4077    1.094    -0.2971 
 C                     0.3748   -0.5516   -0.273 
 C                     1.7146   -0.4798    0.4425 
 C                     2.3347    0.8903    0.2621 
 H                     0.0977   -1.5965   -0.4512 
 H                     0.4204   -0.051    -1.2467 
 H                     1.6022   -0.6654    1.516 
 H                     1.758     1.7292    0.689 
 H                     3.3957   -1.4558    0.4209 
 

 GradGradGradGradGradGradGradGradGradGradGradGradGradGradGradGradGradGrad
 Berny optimization.
 Initialization pass.
                           ----------------------------
                           !    Initial Parameters    !
                           ! (Angstroms and Degrees)  !
 --------------------------                            --------------------------
 ! Name  Definition              Value          Derivative Info.                !
 --------------------------------------------------------------------------------
 ! R1    R(1,2)                  1.6514         estimate D2E/DX2                !
 ! R2    R(1,4)                  1.5257         estimate D2E/DX2                !
 ! R3    R(1,5)                  1.5259         estimate D2E/DX2                !
 ! R4    R(1,6)                  1.5258         estimate D2E/DX2                !
 ! R5    R(2,8)                  1.4204         estimate D2E/DX2                !
 ! R6    R(3,9)                  1.4153         estimate D2E/DX2                !
 ! R7    R(3,15)                 0.9725         estimate D2E/DX2                !
 ! R8    R(7,10)                 1.227          estimate D2E/DX2                !
 ! R9    R(8,9)                  1.5206         estimate D2E/DX2                !
 ! R10   R(8,11)                 1.0956         estimate D2E/DX2                !
 ! R11   R(8,12)                 1.0958         estimate D2E/DX2                !
 ! R12   R(9,10)                 1.5147         estimate D2E/DX2                !
 ! R13   R(9,13)                 1.0952         estimate D2E/DX2                !
 ! R14   R(10,14)                1.1039         estimate D2E/DX2                !
 ! A1    A(2,1,4)              103.5221         estimate D2E/DX2                !
 ! A2    A(2,1,5)              104.716          estimate D2E/DX2                !
 ! A3    A(2,1,6)              104.7189         estimate D2E/DX2                !
 ! A4    A(4,1,5)              113.9652         estimate D2E/DX2                !
 ! A5    A(4,1,6)              113.9637         estimate D2E/DX2                !
 ! A6    A(5,1,6)              114.3511         estimate D2E/DX2                !
 ! A7    A(1,2,8)              118.6984         estimate D2E/DX2                !
 ! A8    A(9,3,15)             107.5556         estimate D2E/DX2                !
 ! A9    A(2,8,9)              109.7601         estimate D2E/DX2                !
 ! A10   A(2,8,11)             108.7425         estimate D2E/DX2                !
 ! A11   A(2,8,12)             109.4833         estimate D2E/DX2                !
 ! A12   A(9,8,11)             110.1462         estimate D2E/DX2                !
 ! A13   A(9,8,12)             111.0927         estimate D2E/DX2                !
 ! A14   A(11,8,12)            107.5592         estimate D2E/DX2                !
 ! A15   A(3,9,8)              108.841          estimate D2E/DX2                !
 ! A16   A(3,9,10)             109.0861         estimate D2E/DX2                !
 ! A17   A(3,9,13)             109.0966         estimate D2E/DX2                !
 ! A18   A(8,9,10)             110.3279         estimate D2E/DX2                !
 ! A19   A(8,9,13)             111.2715         estimate D2E/DX2                !
 ! A20   A(10,9,13)            108.1826         estimate D2E/DX2                !
 ! A21   A(7,10,9)             124.2261         estimate D2E/DX2                !
 ! A22   A(7,10,14)            120.4602         estimate D2E/DX2                !
 ! A23   A(9,10,14)            115.3073         estimate D2E/DX2                !
 ! D1    D(4,1,2,8)            179.9975         estimate D2E/DX2                !
 ! D2    D(5,1,2,8)             60.3217         estimate D2E/DX2                !
 ! D3    D(6,1,2,8)            -60.327          estimate D2E/DX2                !
 ! D4    D(1,2,8,9)            179.9973         estimate D2E/DX2                !
 ! D5    D(1,2,8,11)           -59.4487         estimate D2E/DX2                !
 ! D6    D(1,2,8,12)            57.8082         estimate D2E/DX2                !
 ! D7    D(15,3,9,8)          -174.3079         estimate D2E/DX2                !
 ! D8    D(15,3,9,10)           65.2625         estimate D2E/DX2                !
 ! D9    D(15,3,9,13)          -52.7212         estimate D2E/DX2                !
 ! D10   D(2,8,9,3)            160.0307         estimate D2E/DX2                !
 ! D11   D(2,8,9,10)           -80.3087         estimate D2E/DX2                !
 ! D12   D(2,8,9,13)            39.779          estimate D2E/DX2                !
 ! D13   D(11,8,9,3)            40.3306         estimate D2E/DX2                !
 ! D14   D(11,8,9,10)          159.9912         estimate D2E/DX2                !
 ! D15   D(11,8,9,13)          -79.9211         estimate D2E/DX2                !
 ! D16   D(12,8,9,3)           -78.7432         estimate D2E/DX2                !
 ! D17   D(12,8,9,10)           40.9173         estimate D2E/DX2                !
 ! D18   D(12,8,9,13)          161.0051         estimate D2E/DX2                !
 ! D19   D(3,9,10,7)             1.1328         estimate D2E/DX2                !
 ! D20   D(3,9,10,14)         -177.9516         estimate D2E/DX2                !
 ! D21   D(8,9,10,7)          -118.3794         estimate D2E/DX2                !
 ! D22   D(8,9,10,14)           62.5362         estimate D2E/DX2                !
 ! D23   D(13,9,10,7)          119.6898         estimate D2E/DX2                !
 ! D24   D(13,9,10,14)         -59.3946         estimate D2E/DX2                !
 --------------------------------------------------------------------------------
 Trust Radius=3.00D-01 FncErr=1.00D-07 GrdErr=1.00D-07
 Number of steps in this run=     71 maximum allowed number of steps=    100.
 GradGradGradGradGradGradGradGradGradGradGradGradGradGradGradGradGradGrad

                          Input orientation:                          
 ---------------------------------------------------------------------
 Center     Atomic      Atomic             Coordinates (Angstroms)
 Number     Number       Type             X           Y           Z
 ---------------------------------------------------------------------
      1         15           0       -2.178400    0.101200   -0.044900
      2          8           0       -0.629500    0.057000    0.526000
      3          8           0        2.579600   -1.455400   -0.108000
      4          8           0       -2.947100    0.813600    1.063900
      5          8           0       -2.566700   -1.363300   -0.226000
      6          8           0       -2.089700    0.894000   -1.345500
      7          8           0        3.407700    1.094000   -0.297100
      8          6           0        0.374800   -0.551600   -0.273000
      9          6           0        1.714600   -0.479800    0.442500
     10          6           0        2.334700    0.890300    0.262100
     11          1           0        0.097700   -1.596500   -0.451200
     12          1           0        0.420400   -0.051000   -1.246700
     13          1           0        1.602200   -0.665400    1.516000
     14          1           0        1.758000    1.729200    0.689000
     15          1           0        3.395700   -1.455800    0.420900
 ---------------------------------------------------------------------
                    Distance matrix (angstroms):
                    1          2          3          4          5
     1  P    0.000000
     2  O    1.651354   0.000000
     3  O    5.006551   3.603836   0.000000
     4  O    1.525730   2.496608   6.088195   0.000000
     5  O    1.525888   2.517042   5.148476   2.558797   0.000000
     6  O    1.525765   2.516995   5.371541   2.558673   2.564413
     7  O    5.679240   4.248746   2.687182   6.504954   6.460405
     8  C    2.645186   1.420357   2.388561   3.832244   3.051801
     9  C    3.966178   2.406228   1.415299   4.877547   4.422329
    10  C    4.591841   3.090391   2.387312   5.342862   5.416703
    11  H    2.868431   2.053729   2.509487   4.168323   2.684050
    12  H    2.867272   2.063109   2.816225   4.174501   3.418585
    13  H    4.161372   2.546065   2.053482   4.804994   4.571800
    14  H    4.322527   2.919414   3.384067   4.807997   5.394795
    15  H    5.806187   4.301377   0.972499   6.767181   5.998104
                    6          7          8          9         10
     6  O    0.000000
     7  O    5.600049   0.000000
     8  C    3.051848   3.450661   0.000000
     9  C    4.422326   2.427023   1.520579   0.000000
    10  C    4.707410   1.226999   2.491308   1.514676   0.000000
    11  H    3.433232   4.268330   1.095607   2.158723   3.420108
    12  H    2.683913   3.337173   1.095797   2.170765   2.612866
    13  H    4.924433   3.105262   2.172552   1.095209   2.128150
    14  H    4.431878   2.024199   2.835619   2.223134   1.103893
    15  H    6.223451   2.648990   3.228763   1.944001   2.579753
                   11         12         13         14         15
    11  H    0.000000
    12  H    1.767916   0.000000
    13  H    2.645816   3.067026   0.000000
    14  H    3.888050   2.950461   2.538171   0.000000
    15  H    3.414258   3.688735   2.245132   3.591401   0.000000
 Stoichiometry    C3H5O6P(2-)
 Framework group  C1[X(C3H5O6P)]
 Deg. of freedom    39
 Full point group                 C1      NOp   1
 Largest Abelian subgroup         C1      NOp   1
 Largest concise Abelian subgroup C1      NOp   1
                         Standard orientation:                         
 ---------------------------------------------------------------------
 Center     Atomic      Atomic             Coordinates (Angstroms)
 Number     Number       Type             X           Y           Z
 ---------------------------------------------------------------------
      1         15           0       -1.984786   -0.076245    0.029430
      2          8           0       -0.431730   -0.061435   -0.531615
      3          8           0        2.801017    1.391093    0.121944
      4          8           0       -2.759617   -0.774910   -1.083833
      5          8           0       -2.346752    1.395391    0.207204
      6          8           0       -1.919213   -0.869658    1.331027
      7          8           0        3.580037   -1.173224    0.317793
      8          6           0        0.578683    0.528824    0.273416
      9          6           0        1.921428    0.431466   -0.433491
     10          6           0        2.514616   -0.949871   -0.248351
     11          1           0        0.320060    1.578850    0.449241
     12          1           0        0.608712    0.028138    1.247676
     13          1           0        1.819351    0.618387   -1.507793
     14          1           0        1.925042   -1.778131   -0.678431
     15          1           0        3.620329    1.375853   -0.401745
 ---------------------------------------------------------------------
 Rotational constants (GHZ):      2.6159039      0.5425733      0.5058248
 Standard basis: 6-31G(d) (6D, 7F)
 There are   164 symmetry adapted basis functions of A   symmetry.
 Integral buffers will be    131072 words long.
 Raffenetti 1 integral format.
 Two-electron integral symmetry is turned on.
   164 basis functions,   324 primitive gaussians,   164 cartesian basis functions
    44 alpha electrons       44 beta electrons
       nuclear repulsion energy       654.4507034007 Hartrees.
 NAtoms=   15 NActive=   15 NUniq=   15 SFac= 1.00D+00 NAtFMM=   60 NAOKFM=F Big=F
 One-electron integrals computed using PRISM.
 NBasis=   164 RedAO= T  NBF=   164
 NBsUse=   164 1.00D-06 NBFU=   164
 Harris functional with IExCor=  205 diagonalized for initial guess.
 ExpMin= 9.98D-02 ExpMax= 1.94D+04 ExpMxC= 2.91D+03 IAcc=2 IRadAn=         4 AccDes= 0.00D+00
 HarFok:  IExCor=  205 AccDes= 0.00D+00 IRadAn=         4 IDoV= 1
 ScaDFX=  1.000000  1.000000  1.000000  1.000000
 FoFCou: FMM=F IPFlag=           0 FMFlag=      100000 FMFlg1=           0
         NFxFlg=           0 DoJE=T BraDBF=F KetDBF=T FulRan=T
         Omega=  0.000000  0.000000  1.000000  0.000000  0.000000 ICntrl=     500 IOpCl=  0
         NMat0=    1 NMatS0=    1 NMatT0=    0 NMatD0=    1 NMtDS0=    0 NMtDT0=    0
         I1Cent=           4 NGrid=           0.
 Petite list used in FoFCou.
 Initial guess orbital symmetries:
       Occupied  (A) (A) (A) (A) (A) (A) (A) (A) (A) (A) (A) (A)
                 (A) (A) (A) (A) (A) (A) (A) (A) (A) (A) (A) (A)
                 (A) (A) (A) (A) (A) (A) (A) (A) (A) (A) (A) (A)
                 (A) (A) (A) (A) (A) (A) (A) (A)
       Virtual   (A) (A) (A) (A) (A) (A) (A) (A) (A) (A) (A) (A)
                 (A) (A) (A) (A) (A) (A) (A) (A) (A) (A) (A) (A)
                 (A) (A) (A) (A) (A) (A) (A) (A) (A) (A) (A) (A)
                 (A) (A) (A) (A) (A) (A) (A) (A) (A) (A) (A) (A)
                 (A) (A) (A) (A) (A) (A) (A) (A) (A) (A) (A) (A)
                 (A) (A) (A) (A) (A) (A) (A) (A) (A) (A) (A) (A)
                 (A) (A) (A) (A) (A) (A) (A) (A) (A) (A) (A) (A)
                 (A) (A) (A) (A) (A) (A) (A) (A) (A) (A) (A) (A)
                 (A) (A) (A) (A) (A) (A) (A) (A) (A) (A) (A) (A)
                 (A) (A) (A) (A) (A) (A) (A) (A) (A) (A) (A) (A)
 The electronic state of the initial guess is 1-A.
 Requested convergence on RMS density matrix=1.00D-08 within 128 cycles.
 Requested convergence on MAX density matrix=1.00D-06.
 Requested convergence on             energy=1.00D-06.
 No special actions if energy rises.
 Integral accuracy reduced to 1.0D-05 until final iterations.
 Initial convergence to 1.0D-05 achieved.  Increase integral accuracy.
 SCF Done:  E(RHF) =  -906.356891497     A.U. after   16 cycles
             Convg  =    0.4961D-08             -V/T =  2.0019

 **********************************************************************

            Population analysis using the SCF density.

 **********************************************************************

 Orbital symmetries:
 BldTbl:  Degeneracy threshold= 1.00D-02
       Occupied  (A) (A) (A) (A) (A) (A) (A) (A) (A) (A) (A) (A)
                 (A) (A) (A) (A) (A) (A) (A) (A) (A) (A) (A) (A)
                 (A) (A) (A) (A) (A) (A) (A) (A) (A) (A) (A) (A)
                 (A) (A) (A) (A) (A) (A) (A) (A)
       Virtual   (A) (A) (A) (A) (A) (A) (A) (A) (A) (A) (A) (A)
                 (A) (A) (A) (A) (A) (A) (A) (A) (A) (A) (A) (A)
                 (A) (A) (A) (A) (A) (A) (A) (A) (A) (A) (A) (A)
                 (A) (A) (A) (A) (A) (A) (A) (A) (A) (A) (A) (A)
                 (A) (A) (A) (A) (A) (A) (A) (A) (A) (A) (A) (A)
                 (A) (A) (A) (A) (A) (A) (A) (A) (A) (A) (A) (A)
                 (A) (A) (A) (A) (A) (A) (A) (A) (A) (A) (A) (A)
                 (A) (A) (A) (A) (A) (A) (A) (A) (A) (A) (A) (A)
                 (A) (A) (A) (A) (A) (A) (A) (A) (A) (A) (A) (A)
                 (A) (A) (A) (A) (A) (A) (A) (A) (A) (A) (A) (A)
 The electronic state is 1-A.
 Alpha  occ. eigenvalues --  -79.63705 -20.36379 -20.36337 -20.22706 -20.07481
 Alpha  occ. eigenvalues --  -20.07469 -20.07237 -11.12656 -11.06903 -11.00651
 Alpha  occ. eigenvalues --   -7.15847  -5.05844  -5.05595  -5.05571  -1.18781
 Alpha  occ. eigenvalues --   -1.15195  -1.04144  -0.89426  -0.81750  -0.81486
 Alpha  occ. eigenvalues --   -0.79173  -0.64037  -0.56018  -0.49074  -0.47774
 Alpha  occ. eigenvalues --   -0.43005  -0.39144  -0.34762  -0.33872  -0.31635
 Alpha  occ. eigenvalues --   -0.29068  -0.26679  -0.24130  -0.21399  -0.18681
 Alpha  occ. eigenvalues --   -0.17622  -0.13952  -0.11466  -0.06282  -0.05060
 Alpha  occ. eigenvalues --   -0.05018  -0.00973  -0.00847   0.02517
 Alpha virt. eigenvalues --    0.35678   0.41201   0.49983   0.51410   0.55569
 Alpha virt. eigenvalues --    0.56361   0.60921   0.65242   0.67762   0.69012
 Alpha virt. eigenvalues --    0.70733   0.75848   0.76356   0.76865   0.80272
 Alpha virt. eigenvalues --    0.91319   0.97589   0.98262   1.00180   1.01577
 Alpha virt. eigenvalues --    1.03929   1.07700   1.08680   1.10298   1.13539
 Alpha virt. eigenvalues --    1.15905   1.18666   1.21738   1.28963   1.29934
 Alpha virt. eigenvalues --    1.31784   1.34210   1.35451   1.37064   1.39142
 Alpha virt. eigenvalues --    1.41869   1.43873   1.46391   1.47722   1.48136
 Alpha virt. eigenvalues --    1.48827   1.51090   1.54008   1.58114   1.59050
 Alpha virt. eigenvalues --    1.62277   1.63996   1.71214   1.74444   1.75247
 Alpha virt. eigenvalues --    1.75345   1.76238   1.78796   1.80550   1.83496
 Alpha virt. eigenvalues --    1.89797   1.91373   1.92825   1.97731   1.99433
 Alpha virt. eigenvalues --    2.00575   2.02891   2.04924   2.07655   2.08606
 Alpha virt. eigenvalues --    2.15594   2.20290   2.20809   2.23429   2.27220
 Alpha virt. eigenvalues --    2.29362   2.34278   2.36719   2.43525   2.45982
 Alpha virt. eigenvalues --    2.48599   2.52426   2.55035   2.55398   2.56857
 Alpha virt. eigenvalues --    2.57491   2.57631   2.58485   2.59592   2.60613
 Alpha virt. eigenvalues --    2.61746   2.69733   2.71444   2.75875   2.79975
 Alpha virt. eigenvalues --    2.81648   2.88407   2.89766   2.95630   3.00145
 Alpha virt. eigenvalues --    3.01795   3.05840   3.07309   3.08647   3.14961
 Alpha virt. eigenvalues --    3.18717   3.24023   3.29752   3.45163   3.46490
 Alpha virt. eigenvalues --    3.51935   3.54590   3.57422   3.61617   3.65507
 Alpha virt. eigenvalues --    4.29638   4.31268   4.55406   4.56802   4.60415
 Alpha virt. eigenvalues --    4.74213   4.79848   4.81101   5.00745   5.20523
          Condensed to atoms (all electrons):
              1          2          3          4          5          6
     1  P   11.845660   0.156816   0.000120   0.548420   0.527074   0.526583
     2  O    0.156816   8.596750   0.001116  -0.038683  -0.039505  -0.039668
     3  O    0.000120   0.001116   8.448411   0.000000   0.000000   0.000000
     4  O    0.548420  -0.038683   0.000000   8.509934  -0.045664  -0.045659
     5  O    0.527074  -0.039505   0.000000  -0.045664   8.547605  -0.044553
     6  O    0.526583  -0.039668   0.000000  -0.045659  -0.044553   8.549496
     7  O    0.000009   0.000062  -0.002109   0.000000   0.000000   0.000000
     8  C   -0.014086   0.225116  -0.035543   0.000499  -0.003876  -0.004533
     9  C   -0.000506  -0.051529   0.157434  -0.000026   0.000108   0.000231
    10  C   -0.000191   0.005244  -0.040427   0.000000  -0.000002  -0.000014
    11  H    0.000920  -0.036478   0.003283  -0.000053   0.013539  -0.000776
    12  H   -0.000044  -0.039530   0.002829  -0.000062  -0.000833   0.013643
    13  H    0.000055   0.004812  -0.037004  -0.000016   0.000014  -0.000002
    14  H    0.000323   0.004128   0.003226  -0.000004   0.000001   0.000004
    15  H   -0.000007  -0.000109   0.251112   0.000000   0.000000   0.000000
              7          8          9         10         11         12
     1  P    0.000009  -0.014086  -0.000506  -0.000191   0.000920  -0.000044
     2  O    0.000062   0.225116  -0.051529   0.005244  -0.036478  -0.039530
     3  O   -0.002109  -0.035543   0.157434  -0.040427   0.003283   0.002829
     4  O    0.000000   0.000499  -0.000026   0.000000  -0.000053  -0.000062
     5  O    0.000000  -0.003876   0.000108  -0.000002   0.013539  -0.000833
     6  O    0.000000  -0.004533   0.000231  -0.000014  -0.000776   0.013643
     7  O    8.159303  -0.001059  -0.066055   0.514076  -0.000020   0.000215
     8  C   -0.001059   4.811794   0.290565  -0.046961   0.390992   0.378591
     9  C   -0.066055   0.290565   5.108732   0.307343  -0.050665  -0.052139
    10  C    0.514076  -0.046961   0.307343   4.643525   0.005141  -0.006043
    11  H   -0.000020   0.390992  -0.050665   0.005141   0.546258  -0.040846
    12  H    0.000215   0.378591  -0.052139  -0.006043  -0.040846   0.581234
    13  H    0.001450  -0.031337   0.386978  -0.057854  -0.004185   0.005441
    14  H   -0.050179  -0.000336  -0.072860   0.375814  -0.000030   0.001009
    15  H    0.005943   0.005080  -0.025029  -0.004339  -0.000130  -0.000304
             13         14         15
     1  P    0.000055   0.000323  -0.000007
     2  O    0.004812   0.004128  -0.000109
     3  O   -0.037004   0.003226   0.251112
     4  O   -0.000016  -0.000004   0.000000
     5  O    0.000014   0.000001   0.000000
     6  O   -0.000002   0.000004   0.000000
     7  O    0.001450  -0.050179   0.005943
     8  C   -0.031337  -0.000336   0.005080
     9  C    0.386978  -0.072860  -0.025029
    10  C   -0.057854   0.375814  -0.004339
    11  H   -0.004185  -0.000030  -0.000130
    12  H    0.005441   0.001009  -0.000304
    13  H    0.574574   0.004341  -0.005303
    14  H    0.004341   0.551560   0.000248
    15  H   -0.005303   0.000248   0.359594
 Mulliken atomic charges:
              1
     1  P    1.408854
     2  O   -0.748542
     3  O   -0.752450
     4  O   -0.928686
     5  O   -0.953908
     6  O   -0.954752
     7  O   -0.561636
     8  C    0.035094
     9  C    0.067419
    10  C    0.304687
    11  H    0.173048
    12  H    0.156840
    13  H    0.158035
    14  H    0.182754
    15  H    0.413243
 Sum of Mulliken atomic charges =  -2.00000
 Mulliken charges with hydrogens summed into heavy atoms:
              1
     1  P    1.408854
     2  O   -0.748542
     3  O   -0.339208
     4  O   -0.928686
     5  O   -0.953908
     6  O   -0.954752
     7  O   -0.561636
     8  C    0.364983
     9  C    0.225453
    10  C    0.487441
 Sum of Mulliken charges with hydrogens summed into heavy atoms =  -2.00000
 DipInt: DoE/N= T F RetVal/Mat= T F Init=T NMatP=  1 IDeriv=0 Min/MaxMlt=  0  4
 Entering OneElI...
 OneElI was handed    33483018 working-precision words.
 Multipole integrals L=0 to 4 MinM= 0 MaxM= 0.
 Requested accuracy = 0.1000D-12
 PrsmSu:  NPrtUS=   1 ThrOK=F IAlg=1 NPAlg=1 LenDen=           0.
 Prism:   IPart=     0 DynPar=F LinDyn=F Incr=          11.
 PRISM was handed    33361580 working-precision words and  1167 shell-pairs
 IPart=  0 NShTot=        1167 NBatch=          56 AvBLen=        20.8
 PrSmSu:  NxtVal=             12.
 Electronic moments (au):
        -88.00000000          6.63613093          0.46922666         -1.14123251
      -1682.49302094       -309.15449873       -178.87589345          1.82766397
         -7.26715627         -0.18051969      -1898.16503891       -138.82231361
        -45.75484963       -320.08948957        454.95176270         22.45364632
        330.56075561        140.16562812        -63.23979571         86.10434578
     -49980.64031656      -2458.60798723      -1210.14190698       2347.76478421
      -2257.84171781        408.67985383        -73.14202362        187.70287671
        134.86934696      -7578.33002668      -3168.18153955       -568.93462387
        -74.37162947          9.02931597       -589.07558671
 Electronic spatial extent (au):  <R**2>=           2170.5234
 DipInt: DoE/N= F T RetVal/Mat= T F Init=T NMatP=  1 IDeriv=0 Min/MaxMlt=  0  4
 Nuclear    moments (au):
         86.00000000          0.00000000          0.00000000          0.00000000
       1582.07244174        247.04806066        120.39706694          0.00000000
          0.00000000          0.00000000       2003.41343052        126.47279240
         37.72416501        353.19805634       -409.57383042        -48.81737428
       -281.68774273       -124.89068814         52.07632798        -83.29073221
      43023.83912795       1382.47527783        574.17519979      -2004.45030967
       1861.77980307       -353.84647404         70.72891223       -175.30919443
       -129.25560633       6179.39774473       1989.65672221        282.92221901
         18.55337844        -31.40337665        533.84635293
 Total      moments (au):
         -2.00000000          6.63613093          0.46922666         -1.14123251
       -100.42057919        -62.10643807        -58.47882651          1.82766397
         -7.26715627         -0.18051969        105.24839161        -12.34952121
         -8.03068462         33.10856677         45.37793228        -26.36372797
         48.87301288         15.27493998        -11.16346773          2.81361357
      -6956.80118861      -1076.13270941       -635.96670718        343.31447453
       -396.06191474         54.83337978         -2.41311138         12.39368228
          5.61374063      -1398.93228195      -1178.52481735       -286.01240486
        -55.81825103        -22.37406068        -55.22923378
 Traceless Quadrup. (au):
        -26.75196460         11.56217652         15.18978808          1.82766397
         -7.26715627         -0.18051969
 Charge=             -2.0000 electrons
 Dipole moment (field-independent basis, Debye):
    X=             16.8674    Y=              1.1927    Z=             -2.9007  Tot=             17.1565
 Quadrupole moment (field-independent basis, Debye-Ang):
   XX=           -135.0691   YY=            -83.5353   ZZ=            -78.6560
   XY=              2.4583   XZ=             -9.7746   YZ=             -0.2428
 Traceless Quadrupole moment (field-independent basis, Debye-Ang):
   XX=            -35.9823   YY=             15.5515   ZZ=             20.4308
   XY=              2.4583   XZ=             -9.7746   YZ=             -0.2428
 Octapole moment (field-independent basis, Debye-Ang**2):
  XXX=             74.9117  YYY=             -8.7899  ZZZ=             -5.7159  XYY=             23.5654
  XXY=             32.2983  XXZ=            -18.7647  XZZ=             34.7859  YZZ=             10.8721
  YYZ=             -7.9457  XYZ=              2.0026
 Hexadecapole moment (field-independent basis, Debye-Ang**3):
 XXXX=          -2620.2647 YYYY=           -405.3232 ZZZZ=           -239.5355 XXXY=            129.3087
 XXXZ=           -149.1759 YYYX=             20.6529 YYYZ=             -0.9089 ZZZX=              4.6681
 ZZZY=              2.1144 XXYY=           -526.9049 XXZZ=           -443.8889 YYZZ=           -107.7260
 XXYZ=            -21.0238 YYXZ=             -8.4271 ZZXY=            -20.8020
 N-N= 6.544507034007D+02 E-N=-3.488609356507D+03  KE= 9.046404801631D+02
 Entering OneElI...
 OneElI was handed    33428687 working-precision words.
 Calculate electrostatic properties
    NBasis =   164  MinDer = 0  MaxDer = 0
    NGrid  =    15  NMatD  =   1
 Requested accuracy = 0.1000D-12
 PrsmSu:  NPrtUS=   1 ThrOK=F IAlg=1 NPAlg=1 LenDen=           0.
 Prism:   IPart=     0 DynPar=F LinDyn=F Incr=         166.
 PRISM was handed    33314321 working-precision words and  1109 shell-pairs
 IPart=  0 NShTot=       16635 NBatch=        1109 AvBLen=        15.0
 PrSmSu:  NxtVal=            167.
 --------------------------------------------------------
       Center         ----      EFG at Nuclei      ----
                      3XX-RR        3YY-RR        3ZZ-RR
 --------------------------------------------------------
     1   Atom       -0.847459      0.503419      0.344039
     2   Atom       -1.226328      1.002498      0.223830
     3   Atom       -1.195036      0.585730      0.609306
     4   Atom       -0.073898      0.298409     -0.224511
     5   Atom        0.251837     -0.827847      0.576010
     6   Atom        0.354361      0.156123     -0.510484
     7   Atom       -0.802651      1.919452     -1.116801
     8   Atom       -0.189254      0.170303      0.018952
     9   Atom        0.082480     -0.168291      0.085811
    10   Atom        0.048987      0.422665     -0.471652
    11   Atom        0.126647     -0.258661      0.132013
    12   Atom        0.138202      0.058534     -0.196736
    13   Atom        0.148997      0.124389     -0.273386
    14   Atom        0.029635     -0.096693      0.067058
    15   Atom       -0.254310      0.222797      0.031514
 --------------------------------------------------------
                        XY            XZ            YZ
 --------------------------------------------------------
     1   Atom       -0.001709      0.506123      0.021702
     2   Atom       -0.819821     -0.718845     -0.775470
     3   Atom       -1.159120      0.682689     -0.816869
     4   Atom       -0.389194     -0.514517     -0.522306
     5   Atom        0.346586      0.074465     -0.152983
     6   Atom       -0.004611     -0.005940      0.694460
     7   Atom        0.290835      0.350072      0.504997
     8   Atom       -0.090310     -0.058954     -0.123055
     9   Atom       -0.222617     -0.173167     -0.133482
    10   Atom       -0.063215      0.429932      0.080401
    11   Atom        0.080415      0.016090     -0.067267
    12   Atom        0.018076     -0.023182      0.171559
    13   Atom        0.001606     -0.038105      0.071513
    14   Atom       -0.159489     -0.079923     -0.118182
    15   Atom       -0.013477      0.303035     -0.030812
 --------------------------------------------------------


 ---------------------------------------------------------------------------------
              Nuclear Quadrupole in Principal Axis System
 ---------------------------------------------------------------------------------

       Atom             a.u.   MegaHertz   Gauss  10(-4) cm-1        Axes

              Baa    -1.0335  -223.421   -79.722   -74.525  0.9386  0.0059 -0.3450
     1 P(31)  Bbb     0.4929   106.562    38.024    35.545 -0.1672  0.8823 -0.4400
              Bcc     0.5406   116.859    41.698    38.980  0.3018  0.4706  0.8291
 
              Baa    -1.9120   138.348    49.366    46.148  0.8438  0.3464  0.4098
     2 O(17)  Bbb     0.3833   -27.732    -9.896    -9.251 -0.5160  0.3146  0.7967
              Bcc     1.5287  -110.615   -39.470   -36.897 -0.1471  0.8838 -0.4442
 
              Baa    -1.7972   130.041    46.402    43.377  0.9083  0.4001 -0.1219
     3 O(17)  Bbb    -0.1624    11.755     4.194     3.921 -0.1610  0.6034  0.7810
              Bcc     1.9596  -141.796   -50.596   -47.298 -0.3860  0.6898 -0.6125
 
              Baa    -0.9957    72.051    25.710    24.034  0.5725  0.4490  0.6860
     4 O(17)  Bbb     0.3643   -26.362    -9.407    -8.793  0.8026 -0.1357 -0.5809
              Bcc     0.6314   -45.689   -16.303   -15.240 -0.1678  0.8831 -0.4381
 
              Baa    -0.9480    68.597    24.477    22.881 -0.2821  0.9531  0.1095
     5 O(17)  Bbb     0.3503   -25.345    -9.044    -8.454  0.9490  0.2940 -0.1138
              Bcc     0.5977   -43.252   -15.433   -14.427  0.1407 -0.0718  0.9875
 
              Baa    -0.9475    68.560    24.464    22.869  0.0020 -0.5326  0.8464
     6 O(17)  Bbb     0.3542   -25.627    -9.144    -8.548  0.9996  0.0261  0.0141
              Bcc     0.5933   -42.933   -15.320   -14.321 -0.0296  0.8460  0.5324
 
              Baa    -1.3674    98.945    35.306    33.004 -0.4910 -0.0897  0.8666
     7 O(17)  Bbb    -0.6756    48.886    17.444    16.306  0.8628 -0.1880  0.4693
              Bcc     2.0430  -147.830   -52.750   -49.311  0.1208  0.9781  0.1697
 
              Baa    -0.2420   -32.469   -11.586   -10.830  0.8916  0.2973  0.3417
     8 C(13)  Bbb    -0.0033    -0.448    -0.160    -0.149 -0.4359  0.3584  0.8256
              Bcc     0.2453    32.917    11.746    10.980 -0.1230  0.8850 -0.4491
 
              Baa    -0.3873   -51.972   -18.545   -17.336  0.5088  0.7617  0.4011
     9 C(13)  Bbb     0.1155    15.499     5.530     5.170  0.3457 -0.6075  0.7151
              Bcc     0.2718    36.473    13.014    12.166  0.7884 -0.2252 -0.5725
 
              Baa    -0.7229   -97.000   -34.612   -32.356 -0.4902 -0.0879  0.8672
    10 C(13)  Bbb     0.2896    38.858    13.865    12.961  0.8607  0.1082  0.4975
              Bcc     0.4333    58.143    20.747    19.394 -0.1376  0.9902  0.0226
 
              Baa    -0.2862  -152.699   -54.487   -50.935 -0.1948  0.9672  0.1631
    11 H(1)   Bbb     0.1405    74.988    26.758    25.013  0.7168  0.2538 -0.6494
              Bcc     0.1456    77.711    27.729    25.922  0.6695  0.0096  0.7427
 
              Baa    -0.2849  -152.007   -54.240   -50.704  0.0680 -0.4487  0.8911
    12 H(1)   Bbb     0.1363    72.712    25.946    24.254  0.8256 -0.4761 -0.3027
              Bcc     0.1486    79.295    28.294    26.450  0.5601  0.7563  0.3381
 
              Baa    -0.2891  -154.259   -55.043   -51.455  0.0860 -0.1701  0.9817
    13 H(1)   Bbb     0.1354    72.246    25.779    24.099  0.2803  0.9496  0.1400
              Bcc     0.1537    82.013    29.264    27.357  0.9560 -0.2631 -0.1294
 
              Baa    -0.2662  -142.008   -50.672   -47.369  0.5164  0.7605  0.3936
    14 H(1)   Bbb     0.1281    68.366    24.395    22.805 -0.2457 -0.3087  0.9189
              Bcc     0.1380    73.642    26.277    24.564  0.8203 -0.5712  0.0274
 
              Baa    -0.4465  -238.221   -85.003   -79.462  0.8443 -0.0077 -0.5358
    15 H(1)   Bbb     0.1900   101.375    36.173    33.815  0.3812  0.7114  0.5905
              Bcc     0.2565   136.846    48.830    45.647 -0.3766  0.7028 -0.6036
 

 ---------------------------------------------------------------------------------

 No NMR shielding tensors so no spin-rotation constants.
 Leave Link  601 at Sun Jul 19 15:44:42 2015, MaxMem=   33554432 cpu:       0.3
 Merz-Kollman atomic radii used.
 Atom Element Radius
    1    15    1.80
    2     8    1.40
    3     8    1.40
    4     8    1.40
    5     8    1.40
    6     8    1.40
    7     8    1.40
    8     6    1.50
    9     6    1.50
   10     6    1.50
   11     1    1.20
   12     1    1.20
   13     1    1.20
   14     1    1.20
   15     1    1.20
 Generate VDW surfaces: Layer= 4 Dens= 6 Start= 1.400 Inc= 0.200

 **********************************************************************

            Electrostatic Properties Using The SCF Density

 **********************************************************************

       Atomic Center    1 is at  -1.984786 -0.076245  0.029430
       Atomic Center    2 is at  -0.431730 -0.061435 -0.531615
       Atomic Center    3 is at   2.801017  1.391093  0.121944
       Atomic Center    4 is at  -2.759617 -0.774910 -1.083833
       Atomic Center    5 is at  -2.346752  1.395391  0.207204
       Atomic Center    6 is at  -1.919213 -0.869658  1.331027
       Atomic Center    7 is at   3.580037 -1.173224  0.317793
       Atomic Center    8 is at   0.578683  0.528824  0.273416
       Atomic Center    9 is at   1.921428  0.431466 -0.433491
       Atomic Center   10 is at   2.514616 -0.949871 -0.248351
       Atomic Center   11 is at   0.320060  1.578850  0.449241
       Atomic Center   12 is at   0.608712  0.028138  1.247676
       Atomic Center   13 is at   1.819351  0.618387 -1.507793
       Atomic Center   14 is at   1.925042 -1.778131 -0.678431
       Atomic Center   15 is at   3.620329  1.375853 -0.401745
      ESP Fit Center   16 is at  -1.066002  0.694707  2.245704
      ESP Fit Center   17 is at  -1.385092  0.962455  2.245704
      ESP Fit Center   18 is at  -1.776514  1.104921  2.245704
      ESP Fit Center   19 is at  -2.193057  1.104921  2.245704
      ESP Fit Center   20 is at  -2.584479  0.962455  2.245704
      ESP Fit Center   21 is at  -2.903570  0.694707  2.245704
      ESP Fit Center   22 is at  -0.928319  1.054955  2.018064
      ESP Fit Center   23 is at  -1.272690  1.298038  2.018064
      ESP Fit Center   24 is at  -3.185444  0.900563  2.018064
      ESP Fit Center   25 is at  -3.404460  0.540407  2.018064
      ESP Fit Center   26 is at  -3.518185  0.134516  2.018064
      ESP Fit Center   27 is at  -0.877639  1.410911  1.736179
      ESP Fit Center   28 is at  -3.533800  0.942558  1.736179
      ESP Fit Center   29 is at  -3.726999  0.557869  1.736179
      ESP Fit Center   30 is at  -3.826274  0.138994  1.736179
      ESP Fit Center   31 is at  -3.826274 -0.291484  1.736179
      ESP Fit Center   32 is at  -3.997695  0.555309  1.407739
      ESP Fit Center   33 is at  -4.083621  0.137186  1.407739
      ESP Fit Center   34 is at  -4.083621 -0.289676  1.407739
      ESP Fit Center   35 is at  -3.997695 -0.707799  1.407739
      ESP Fit Center   36 is at  -4.136697  0.757410  1.041702
      ESP Fit Center   37 is at  -4.253241  0.347803  1.041702
      ESP Fit Center   38 is at  -4.292535 -0.076245  1.041702
      ESP Fit Center   39 is at  -4.253241 -0.500293  1.041702
      ESP Fit Center   40 is at  -4.136697 -0.909900  1.041702
      ESP Fit Center   41 is at  -3.946873 -1.291118  1.041702
      ESP Fit Center   42 is at  -4.280350  0.759272  0.648053
      ESP Fit Center   43 is at  -4.390561  0.347958  0.648053
      ESP Fit Center   44 is at  -4.427674 -0.076245  0.648053
      ESP Fit Center   45 is at  -4.390561 -0.500448  0.648053
      ESP Fit Center   46 is at  -4.280350 -0.911762  0.648053
      ESP Fit Center   47 is at  -4.100389 -1.297689  0.648053
      ESP Fit Center   48 is at  -3.856147 -1.646503  0.648053
      ESP Fit Center   49 is at  -3.555044 -1.947606  0.648053
      ESP Fit Center   50 is at  -3.206230 -2.191848  0.648053
      ESP Fit Center   51 is at  -0.414527 -1.947606  0.648053
      ESP Fit Center   52 is at  -0.113424 -1.646503  0.648053
      ESP Fit Center   53 is at  -4.273239  0.958201  0.237530
      ESP Fit Center   54 is at  -4.415143  0.556571  0.237530
      ESP Fit Center   55 is at  -4.487131  0.136736  0.237530
      ESP Fit Center   56 is at  -4.487131 -0.289226  0.237530
      ESP Fit Center   57 is at  -4.415143 -0.709061  0.237530
      ESP Fit Center   58 is at  -4.273239 -1.110691  0.237530
      ESP Fit Center   59 is at  -4.065499 -1.482562  0.237530
      ESP Fit Center   60 is at  -3.797901 -1.813975  0.237530
      ESP Fit Center   61 is at  -3.478143 -2.095398  0.237530
      ESP Fit Center   62 is at  -3.115424 -2.318732  0.237530
      ESP Fit Center   63 is at  -2.720179 -2.477555  0.237530
      ESP Fit Center   64 is at  -2.303777 -2.567297  0.237530
      ESP Fit Center   65 is at  -1.878199 -2.585375  0.237530
      ESP Fit Center   66 is at  -1.455687 -2.531270  0.237530
      ESP Fit Center   67 is at  -1.048397 -2.406539  0.237530
      ESP Fit Center   68 is at  -0.668044 -2.214769  0.237530
      ESP Fit Center   69 is at  -0.325572 -1.961478  0.237530
      ESP Fit Center   70 is at  -4.273239  0.958201 -0.178670
      ESP Fit Center   71 is at  -4.415143  0.556571 -0.178670
      ESP Fit Center   72 is at  -4.487131  0.136736 -0.178670
      ESP Fit Center   73 is at  -4.487131 -0.289226 -0.178670
      ESP Fit Center   74 is at  -2.303777 -2.567297 -0.178670
      ESP Fit Center   75 is at  -1.878199 -2.585375 -0.178670
      ESP Fit Center   76 is at  -1.455687 -2.531270 -0.178670
      ESP Fit Center   77 is at  -1.048397 -2.406539 -0.178670
      ESP Fit Center   78 is at  -0.668044 -2.214769 -0.178670
      ESP Fit Center   79 is at  -4.280350  0.759272 -0.589194
      ESP Fit Center   80 is at  -4.390561  0.347958 -0.589194
      ESP Fit Center   81 is at  -1.984786 -2.519133 -0.589194
      ESP Fit Center   82 is at  -1.560583 -2.482021 -0.589194
      ESP Fit Center   83 is at  -1.149269 -2.371809 -0.589194
      ESP Fit Center   84 is at  -0.763341 -2.191848 -0.589194
      ESP Fit Center   85 is at  -3.946873  1.138628 -0.982843
      ESP Fit Center   86 is at  -4.136697  0.757410 -0.982843
      ESP Fit Center   87 is at  -1.353240 -2.295897 -0.982843
      ESP Fit Center   88 is at  -0.956134 -2.142057 -0.982843
      ESP Fit Center   89 is at  -0.868852  1.714106 -1.348880
      ESP Fit Center   90 is at  -1.252090  1.902093 -1.348880
      ESP Fit Center   91 is at  -3.585507  1.297929 -1.348880
      ESP Fit Center   92 is at  -3.829359  0.947577 -1.348880
      ESP Fit Center   93 is at  -1.252090 -2.054583 -1.348880
      ESP Fit Center   94 is at  -0.868852 -1.866595 -1.348880
      ESP Fit Center   95 is at  -1.250444  1.626150 -1.677320
      ESP Fit Center   96 is at  -1.662838  1.749613 -1.677320
      ESP Fit Center   97 is at  -2.911798  1.529387 -1.677320
      ESP Fit Center   98 is at  -3.257094  1.272324 -1.677320
      ESP Fit Center   99 is at  -3.533800  0.942558 -1.677320
      ESP Fit Center  100 is at  -1.272690  1.298038 -1.959204
      ESP Fit Center  101 is at  -1.669873  1.439197 -1.959204
      ESP Fit Center  102 is at  -2.090412  1.467963 -1.959204
      ESP Fit Center  103 is at  -2.503118  1.382202 -1.959204
      ESP Fit Center  104 is at  -2.877381  1.188274 -1.959204
      ESP Fit Center  105 is at  -1.385092  0.962455 -2.186844
      ESP Fit Center  106 is at  -1.776514  1.104921 -2.186844
      ESP Fit Center  107 is at  -2.193057  1.104921 -2.186844
      ESP Fit Center  108 is at  -2.584479  0.962455 -2.186844
      ESP Fit Center  109 is at  -1.166543 -0.076245 -2.354030
      ESP Fit Center  110 is at  -1.276167  0.332877 -2.354030
      ESP Fit Center  111 is at  -1.575664  0.632374 -2.354030
      ESP Fit Center  112 is at  -1.984786  0.741998 -2.354030
      ESP Fit Center  113 is at  -1.276167 -0.485366 -2.354030
      ESP Fit Center  114 is at  -1.777397  0.282964 -2.456201
      ESP Fit Center  115 is at   0.092798 -1.675767  0.448385
      ESP Fit Center  116 is at  -0.016936 -1.878769  0.074058
      ESP Fit Center  117 is at   0.377060 -1.740904  0.074058
      ESP Fit Center  118 is at  -0.326199 -2.007839 -0.326739
      ESP Fit Center  119 is at   0.089753 -1.939647 -0.326739
      ESP Fit Center  120 is at  -0.326199 -2.007839 -0.736491
      ESP Fit Center  121 is at   0.089753 -1.939647 -0.736491
      ESP Fit Center  122 is at  -0.431730  1.802636 -1.137288
      ESP Fit Center  123 is at  -0.431730 -1.925505 -1.137288
      ESP Fit Center  124 is at  -0.016936 -1.878769 -1.137288
      ESP Fit Center  125 is at   0.092798  1.552898 -1.511615
      ESP Fit Center  126 is at  -0.325149  1.632626 -1.511615
      ESP Fit Center  127 is at  -0.749793  1.605909 -1.511615
      ESP Fit Center  128 is at  -0.749793 -1.728779 -1.511615
      ESP Fit Center  129 is at  -0.325149 -1.755495 -1.511615
      ESP Fit Center  130 is at   0.092798 -1.675767 -1.511615
      ESP Fit Center  131 is at   0.477787 -1.494605 -1.511615
      ESP Fit Center  132 is at   0.173348  1.263502 -1.843111
      ESP Fit Center  133 is at  -0.224440  1.380304 -1.843111
      ESP Fit Center  134 is at  -0.639021  1.380304 -1.843111
      ESP Fit Center  135 is at  -0.639021 -1.503173 -1.843111
      ESP Fit Center  136 is at  -0.224440 -1.503173 -1.843111
      ESP Fit Center  137 is at   0.173348 -1.386372 -1.843111
      ESP Fit Center  138 is at   0.522116 -1.162232 -1.843111
      ESP Fit Center  139 is at   0.793609 -0.848912 -1.843111
      ESP Fit Center  140 is at   0.081787  0.969846 -2.117288
      ESP Fit Center  141 is at  -0.325432  1.085710 -2.117288
      ESP Fit Center  142 is at  -0.747006  1.046645 -2.117288
      ESP Fit Center  143 is at  -0.747006 -1.169515 -2.117288
      ESP Fit Center  144 is at  -0.325432 -1.208579 -2.117288
      ESP Fit Center  145 is at   0.081787 -1.092716 -2.117288
      ESP Fit Center  146 is at   0.419652 -0.837572 -2.117288
      ESP Fit Center  147 is at   0.642533 -0.477606 -2.117288
      ESP Fit Center  148 is at   0.365474 -0.061435 -2.322164
      ESP Fit Center  149 is at   0.258668  0.337167 -2.322164
      ESP Fit Center  150 is at  -0.033128  0.628964 -2.322164
      ESP Fit Center  151 is at  -0.431730  0.735769 -2.322164
      ESP Fit Center  152 is at  -0.830332  0.628964 -2.322164
      ESP Fit Center  153 is at  -1.122129  0.337167 -2.322164
      ESP Fit Center  154 is at  -1.122129 -0.460037 -2.322164
      ESP Fit Center  155 is at  -0.830332 -0.751833 -2.322164
      ESP Fit Center  156 is at  -0.431730 -0.858638 -2.322164
      ESP Fit Center  157 is at  -0.033128 -0.751833 -2.322164
      ESP Fit Center  158 is at   0.258668 -0.460037 -2.322164
      ESP Fit Center  159 is at  -0.024223 -0.061435 -2.448784
      ESP Fit Center  160 is at  -0.227977  0.291477 -2.448784
      ESP Fit Center  161 is at  -0.635484  0.291477 -2.448784
      ESP Fit Center  162 is at  -0.839237 -0.061435 -2.448784
      ESP Fit Center  163 is at  -0.635484 -0.414346 -2.448784
      ESP Fit Center  164 is at  -0.227977 -0.414346 -2.448784
      ESP Fit Center  165 is at  -0.431730 -0.061435 -2.491615
      ESP Fit Center  166 is at   2.801017  1.391093  2.081944
      ESP Fit Center  167 is at   3.208524  1.391093  2.039114
      ESP Fit Center  168 is at   3.004771  1.744004  2.039114
      ESP Fit Center  169 is at   2.597264  1.744004  2.039114
      ESP Fit Center  170 is at   2.393510  1.391093  2.039114
      ESP Fit Center  171 is at   2.597264  1.038182  2.039114
      ESP Fit Center  172 is at   3.004771  1.038182  2.039114
      ESP Fit Center  173 is at   3.598221  1.391093  1.912494
      ESP Fit Center  174 is at   3.491416  1.789695  1.912494
      ESP Fit Center  175 is at   3.199619  2.081492  1.912494
      ESP Fit Center  176 is at   2.801017  2.188297  1.912494
      ESP Fit Center  177 is at   2.402415  2.081492  1.912494
      ESP Fit Center  178 is at   2.110618  1.789695  1.912494
      ESP Fit Center  179 is at   2.003813  1.391093  1.912494
      ESP Fit Center  180 is at   2.110618  0.992491  1.912494
      ESP Fit Center  181 is at   2.402415  0.700694  1.912494
      ESP Fit Center  182 is at   2.801017  0.593889  1.912494
      ESP Fit Center  183 is at   3.199619  0.700694  1.912494
      ESP Fit Center  184 is at   3.491416  0.992491  1.912494
      ESP Fit Center  185 is at   3.953076  1.391093  1.707618
      ESP Fit Center  186 is at   3.875280  1.807265  1.707618
      ESP Fit Center  187 is at   3.652399  2.167230  1.707618
      ESP Fit Center  188 is at   3.314534  2.422374  1.707618
      ESP Fit Center  189 is at   2.907316  2.538238  1.707618
      ESP Fit Center  190 is at   2.485741  2.499173  1.707618
      ESP Fit Center  191 is at   2.106746  2.310456  1.707618
      ESP Fit Center  192 is at   1.821517  1.997574  1.707618
      ESP Fit Center  193 is at   2.485741  0.283013  1.707618
      ESP Fit Center  194 is at   2.907316  0.243948  1.707618
      ESP Fit Center  195 is at   3.314534  0.359812  1.707618
      ESP Fit Center  196 is at   3.652399  0.614956  1.707618
      ESP Fit Center  197 is at   3.875280  0.974921  1.707618
      ESP Fit Center  198 is at   4.257581  1.391093  1.433440
      ESP Fit Center  199 is at   4.198580  1.801455  1.433440
      ESP Fit Center  200 is at   4.026357  2.178571  1.433440
      ESP Fit Center  201 is at   3.754864  2.491891  1.433440
      ESP Fit Center  202 is at   3.406096  2.716030  1.433440
      ESP Fit Center  203 is at   3.008308  2.832831  1.433440
      ESP Fit Center  204 is at   2.593727  2.832831  1.433440
      ESP Fit Center  205 is at   2.195939  2.716030  1.433440
      ESP Fit Center  206 is at   1.847171  2.491891  1.433440
      ESP Fit Center  207 is at   1.575678  2.178571  1.433440
      ESP Fit Center  208 is at   4.026357  0.603615  1.433440
      ESP Fit Center  209 is at   4.198580  0.980732  1.433440
      ESP Fit Center  210 is at   4.498427  1.391093  1.101944
      ESP Fit Center  211 is at   4.445100  1.813222  1.101944
      ESP Fit Center  212 is at   4.288469  2.208826  1.101944
      ESP Fit Center  213 is at   4.038376  2.553050  1.101944
      ESP Fit Center  214 is at   3.710535  2.824264  1.101944
      ESP Fit Center  215 is at   3.325546  3.005426  1.101944
      ESP Fit Center  216 is at   2.907598  3.085153  1.101944
      ESP Fit Center  217 is at   2.482954  3.058437  1.101944
      ESP Fit Center  218 is at   2.078295  2.926955  1.101944
      ESP Fit Center  219 is at   1.719047  2.698970  1.101944
      ESP Fit Center  220 is at   4.288469  0.573360  1.101944
      ESP Fit Center  221 is at   4.445100  0.968964  1.101944
      ESP Fit Center  222 is at   4.258406  2.553322  0.727618
      ESP Fit Center  223 is at   3.963246  2.848482  0.727618
      ESP Fit Center  224 is at   3.609807  3.070563  0.727618
      ESP Fit Center  225 is at   3.215812  3.208428  0.727618
      ESP Fit Center  226 is at   2.801017  3.255164  0.727618
      ESP Fit Center  227 is at   2.386222  3.208428  0.727618
      ESP Fit Center  228 is at   1.992227  3.070563  0.727618
      ESP Fit Center  229 is at   1.638788  2.848482  0.727618
      ESP Fit Center  230 is at   4.062943  2.876747  0.326820
      ESP Fit Center  231 is at   3.714068  3.113290  0.326820
      ESP Fit Center  232 is at   3.322500  3.269305  0.326820
      ESP Fit Center  233 is at   2.906548  3.337497  0.326820
      ESP Fit Center  234 is at   2.485662  3.314677  0.326820
      ESP Fit Center  235 is at   2.079521  3.201913  0.326820
      ESP Fit Center  236 is at   1.707116  3.004477  0.326820
      ESP Fit Center  237 is at   3.714068  3.113290 -0.082931
      ESP Fit Center  238 is at   3.322500  3.269305 -0.082931
      ESP Fit Center  239 is at   2.906548  3.337497 -0.082931
      ESP Fit Center  240 is at   2.485662  3.314677 -0.082931
      ESP Fit Center  241 is at   2.079521  3.201913 -0.082931
      ESP Fit Center  242 is at   1.707116  3.004477 -0.082931
      ESP Fit Center  243 is at   3.609807  3.070563 -0.483729
      ESP Fit Center  244 is at   3.215812  3.208428 -0.483729
      ESP Fit Center  245 is at   2.801017  3.255164 -0.483729
      ESP Fit Center  246 is at   2.386222  3.208428 -0.483729
      ESP Fit Center  247 is at   1.992227  3.070563 -0.483729
      ESP Fit Center  248 is at   1.638788  2.848482 -0.483729
      ESP Fit Center  249 is at   1.343628  2.553322 -0.483729
      ESP Fit Center  250 is at   3.325546  3.005426 -0.858056
      ESP Fit Center  251 is at   2.907598  3.085153 -0.858056
      ESP Fit Center  252 is at   2.482954  3.058437 -0.858056
      ESP Fit Center  253 is at   2.078295  2.926955 -0.858056
      ESP Fit Center  254 is at   1.719047  2.698970 -0.858056
      ESP Fit Center  255 is at   3.008308  2.832831 -1.189552
      ESP Fit Center  256 is at   2.593727  2.832831 -1.189552
      ESP Fit Center  257 is at   2.195939  2.716030 -1.189552
      ESP Fit Center  258 is at   1.847171  2.491891 -1.189552
      ESP Fit Center  259 is at   2.907316  2.538238 -1.463729
      ESP Fit Center  260 is at   2.485741  2.499173 -1.463729
      ESP Fit Center  261 is at   2.106746  2.310456 -1.463729
      ESP Fit Center  262 is at   2.801017  2.188297 -1.668605
      ESP Fit Center  263 is at  -4.443643 -0.987652 -0.103833
      ESP Fit Center  264 is at  -4.337829 -1.399768 -0.103833
      ESP Fit Center  265 is at  -4.132851 -1.772622 -0.103833
      ESP Fit Center  266 is at  -3.841587 -2.082786 -0.103833
      ESP Fit Center  267 is at  -3.482339 -2.310772 -0.103833
      ESP Fit Center  268 is at  -3.077680 -2.442254 -0.103833
      ESP Fit Center  269 is at  -4.576952 -0.360115 -0.478160
      ESP Fit Center  270 is at  -4.623688 -0.774910 -0.478160
      ESP Fit Center  271 is at  -4.576952 -1.189704 -0.478160
      ESP Fit Center  272 is at  -4.439087 -1.583700 -0.478160
      ESP Fit Center  273 is at  -4.217007 -1.937139 -0.478160
      ESP Fit Center  274 is at  -3.921846 -2.232299 -0.478160
      ESP Fit Center  275 is at  -3.568407 -2.454379 -0.478160
      ESP Fit Center  276 is at  -3.174412 -2.592244 -0.478160
      ESP Fit Center  277 is at  -2.759617 -2.638980 -0.478160
      ESP Fit Center  278 is at  -2.344823 -2.592244 -0.478160
      ESP Fit Center  279 is at  -4.429857  0.230040 -0.878957
      ESP Fit Center  280 is at  -4.606842 -0.152507 -0.878957
      ESP Fit Center  281 is at  -4.697454 -0.564157 -0.878957
      ESP Fit Center  282 is at  -4.697454 -0.985662 -0.878957
      ESP Fit Center  283 is at  -4.606842 -1.397312 -0.878957
      ESP Fit Center  284 is at  -4.429857 -1.779860 -0.878957
      ESP Fit Center  285 is at  -4.174773 -2.115417 -0.878957
      ESP Fit Center  286 is at  -3.853518 -2.388293 -0.878957
      ESP Fit Center  287 is at  -3.481114 -2.585730 -0.878957
      ESP Fit Center  288 is at  -3.074973 -2.698494 -0.878957
      ESP Fit Center  289 is at  -2.654086 -2.721314 -0.878957
      ESP Fit Center  290 is at  -2.238134 -2.653122 -0.878957
      ESP Fit Center  291 is at  -1.846566 -2.497107 -0.878957
      ESP Fit Center  292 is at  -4.174773  0.565597 -1.288709
      ESP Fit Center  293 is at  -4.429857  0.230040 -1.288709
      ESP Fit Center  294 is at  -4.606842 -0.152507 -1.288709
      ESP Fit Center  295 is at  -4.697454 -0.564157 -1.288709
      ESP Fit Center  296 is at  -4.697454 -0.985662 -1.288709
      ESP Fit Center  297 is at  -4.606842 -1.397312 -1.288709
      ESP Fit Center  298 is at  -4.429857 -1.779860 -1.288709
      ESP Fit Center  299 is at  -4.174773 -2.115417 -1.288709
      ESP Fit Center  300 is at  -3.853518 -2.388293 -1.288709
      ESP Fit Center  301 is at  -3.481114 -2.585730 -1.288709
      ESP Fit Center  302 is at  -3.074973 -2.698494 -1.288709
      ESP Fit Center  303 is at  -2.654086 -2.721314 -1.288709
      ESP Fit Center  304 is at  -2.238134 -2.653122 -1.288709
      ESP Fit Center  305 is at  -1.846566 -2.497107 -1.288709
      ESP Fit Center  306 is at  -1.497691 -2.260564 -1.288709
      ESP Fit Center  307 is at  -3.568407  0.904560 -1.689507
      ESP Fit Center  308 is at  -3.921846  0.682480 -1.689507
      ESP Fit Center  309 is at  -4.217007  0.387319 -1.689507
      ESP Fit Center  310 is at  -4.439087  0.033880 -1.689507
      ESP Fit Center  311 is at  -4.576952 -0.360115 -1.689507
      ESP Fit Center  312 is at  -4.623688 -0.774910 -1.689507
      ESP Fit Center  313 is at  -4.576952 -1.189704 -1.689507
      ESP Fit Center  314 is at  -4.439087 -1.583700 -1.689507
      ESP Fit Center  315 is at  -4.217007 -1.937139 -1.689507
      ESP Fit Center  316 is at  -3.921846 -2.232299 -1.689507
      ESP Fit Center  317 is at  -3.568407 -2.454379 -1.689507
      ESP Fit Center  318 is at  -3.174412 -2.592244 -1.689507
      ESP Fit Center  319 is at  -2.759617 -2.638980 -1.689507
      ESP Fit Center  320 is at  -2.344823 -2.592244 -1.689507
      ESP Fit Center  321 is at  -1.950827 -2.454379 -1.689507
      ESP Fit Center  322 is at  -1.597388 -2.232299 -1.689507
      ESP Fit Center  323 is at  -1.302228 -1.937139 -1.689507
      ESP Fit Center  324 is at  -3.077680  0.892434 -2.063833
      ESP Fit Center  325 is at  -3.482339  0.760953 -2.063833
      ESP Fit Center  326 is at  -3.841587  0.532967 -2.063833
      ESP Fit Center  327 is at  -4.132851  0.222803 -2.063833
      ESP Fit Center  328 is at  -4.337829 -0.150051 -2.063833
      ESP Fit Center  329 is at  -4.443643 -0.562168 -2.063833
      ESP Fit Center  330 is at  -4.443643 -0.987652 -2.063833
      ESP Fit Center  331 is at  -4.337829 -1.399768 -2.063833
      ESP Fit Center  332 is at  -4.132851 -1.772622 -2.063833
      ESP Fit Center  333 is at  -3.841587 -2.082786 -2.063833
      ESP Fit Center  334 is at  -3.482339 -2.310772 -2.063833
      ESP Fit Center  335 is at  -3.077680 -2.442254 -2.063833
      ESP Fit Center  336 is at  -2.653036 -2.468970 -2.063833
      ESP Fit Center  337 is at  -2.235089 -2.389242 -2.063833
      ESP Fit Center  338 is at  -1.850100 -2.208080 -2.063833
      ESP Fit Center  339 is at  -1.522259 -1.936867 -2.063833
      ESP Fit Center  340 is at  -1.272166 -1.592643 -2.063833
      ESP Fit Center  341 is at  -1.115535 -1.197038 -2.063833
      ESP Fit Center  342 is at  -1.303053 -0.774910 -2.395329
      ESP Fit Center  343 is at  -2.552327  0.666828 -2.395329
      ESP Fit Center  344 is at  -2.966908  0.666828 -2.395329
      ESP Fit Center  345 is at  -3.364696  0.550027 -2.395329
      ESP Fit Center  346 is at  -3.713464  0.325888 -2.395329
      ESP Fit Center  347 is at  -3.984957  0.012568 -2.395329
      ESP Fit Center  348 is at  -4.157180 -0.364548 -2.395329
      ESP Fit Center  349 is at  -4.216181 -0.774910 -2.395329
      ESP Fit Center  350 is at  -4.157180 -1.185271 -2.395329
      ESP Fit Center  351 is at  -3.984957 -1.562388 -2.395329
      ESP Fit Center  352 is at  -3.713464 -1.875707 -2.395329
      ESP Fit Center  353 is at  -3.364696 -2.099847 -2.395329
      ESP Fit Center  354 is at  -2.966908 -2.216648 -2.395329
      ESP Fit Center  355 is at  -2.552327 -2.216648 -2.395329
      ESP Fit Center  356 is at  -2.154539 -2.099847 -2.395329
      ESP Fit Center  357 is at  -1.805771 -1.875707 -2.395329
      ESP Fit Center  358 is at  -1.534278 -1.562388 -2.395329
      ESP Fit Center  359 is at  -1.362055 -1.185271 -2.395329
      ESP Fit Center  360 is at  -1.607558 -0.774910 -2.669507
      ESP Fit Center  361 is at  -1.685354 -0.358738 -2.669507
      ESP Fit Center  362 is at  -1.908235  0.001227 -2.669507
      ESP Fit Center  363 is at  -2.246100  0.256371 -2.669507
      ESP Fit Center  364 is at  -2.653319  0.372235 -2.669507
      ESP Fit Center  365 is at  -3.074893  0.333170 -2.669507
      ESP Fit Center  366 is at  -3.453888  0.144453 -2.669507
      ESP Fit Center  367 is at  -3.739118 -0.168429 -2.669507
      ESP Fit Center  368 is at  -3.892060 -0.563219 -2.669507
      ESP Fit Center  369 is at  -3.892060 -0.986600 -2.669507
      ESP Fit Center  370 is at  -3.739118 -1.381391 -2.669507
      ESP Fit Center  371 is at  -3.453888 -1.694273 -2.669507
      ESP Fit Center  372 is at  -3.074893 -1.882990 -2.669507
      ESP Fit Center  373 is at  -2.653319 -1.922054 -2.669507
      ESP Fit Center  374 is at  -2.246100 -1.806191 -2.669507
      ESP Fit Center  375 is at  -1.908235 -1.551047 -2.669507
      ESP Fit Center  376 is at  -1.685354 -1.191081 -2.669507
      ESP Fit Center  377 is at  -1.962413 -0.774910 -2.874382
      ESP Fit Center  378 is at  -2.069219 -0.376308 -2.874382
      ESP Fit Center  379 is at  -2.361015 -0.084511 -2.874382
      ESP Fit Center  380 is at  -2.759617  0.022294 -2.874382
      ESP Fit Center  381 is at  -3.158219 -0.084511 -2.874382
      ESP Fit Center  382 is at  -3.450016 -0.376308 -2.874382
      ESP Fit Center  383 is at  -3.556821 -0.774910 -2.874382
      ESP Fit Center  384 is at  -3.450016 -1.173512 -2.874382
      ESP Fit Center  385 is at  -3.158219 -1.465308 -2.874382
      ESP Fit Center  386 is at  -2.759617 -1.572114 -2.874382
      ESP Fit Center  387 is at  -2.361015 -1.465308 -2.874382
      ESP Fit Center  388 is at  -2.069219 -1.173512 -2.874382
      ESP Fit Center  389 is at  -2.352110 -0.774910 -3.001003
      ESP Fit Center  390 is at  -2.555864 -0.421998 -3.001003
      ESP Fit Center  391 is at  -2.963371 -0.421998 -3.001003
      ESP Fit Center  392 is at  -3.167124 -0.774910 -3.001003
      ESP Fit Center  393 is at  -2.963371 -1.127821 -3.001003
      ESP Fit Center  394 is at  -2.555864 -1.127821 -3.001003
      ESP Fit Center  395 is at  -2.759617 -0.774910 -3.043833
      ESP Fit Center  396 is at  -2.346752  1.395391  2.167204
      ESP Fit Center  397 is at  -1.939245  1.395391  2.124373
      ESP Fit Center  398 is at  -2.142998  1.748302  2.124373
      ESP Fit Center  399 is at  -2.550505  1.748302  2.124373
      ESP Fit Center  400 is at  -2.754258  1.395391  2.124373
      ESP Fit Center  401 is at  -1.656353  1.793993  1.997753
      ESP Fit Center  402 is at  -1.948150  2.085790  1.997753
      ESP Fit Center  403 is at  -2.346752  2.192595  1.997753
      ESP Fit Center  404 is at  -2.745353  2.085790  1.997753
      ESP Fit Center  405 is at  -3.037150  1.793993  1.997753
      ESP Fit Center  406 is at  -3.143955  1.395391  1.997753
      ESP Fit Center  407 is at  -1.272488  1.811563  1.792877
      ESP Fit Center  408 is at  -1.495370  2.171528  1.792877
      ESP Fit Center  409 is at  -1.833235  2.426672  1.792877
      ESP Fit Center  410 is at  -2.240453  2.542535  1.792877
      ESP Fit Center  411 is at  -2.662027  2.503471  1.792877
      ESP Fit Center  412 is at  -3.041022  2.314754  1.792877
      ESP Fit Center  413 is at  -3.326252  2.001872  1.792877
      ESP Fit Center  414 is at  -3.479195  1.607081  1.792877
      ESP Fit Center  415 is at  -3.479195  1.183701  1.792877
      ESP Fit Center  416 is at  -1.121412  2.182869  1.518700
      ESP Fit Center  417 is at  -1.392905  2.496188  1.518700
      ESP Fit Center  418 is at  -1.741673  2.720328  1.518700
      ESP Fit Center  419 is at  -2.139461  2.837129  1.518700
      ESP Fit Center  420 is at  -2.554042  2.837129  1.518700
      ESP Fit Center  421 is at  -2.951830  2.720328  1.518700
      ESP Fit Center  422 is at  -3.300598  2.496188  1.518700
      ESP Fit Center  423 is at  -3.572091  2.182869  1.518700
      ESP Fit Center  424 is at  -3.744314  1.805752  1.518700
      ESP Fit Center  425 is at  -3.803315  1.395391  1.518700
      ESP Fit Center  426 is at  -3.744314  0.985029  1.518700
      ESP Fit Center  427 is at  -1.109393  2.557348  1.187204
      ESP Fit Center  428 is at  -1.437234  2.828561  1.187204
      ESP Fit Center  429 is at  -1.822223  3.009723  1.187204
      ESP Fit Center  430 is at  -2.240170  3.089451  1.187204
      ESP Fit Center  431 is at  -2.664814  3.062735  1.187204
      ESP Fit Center  432 is at  -3.069473  2.931253  1.187204
      ESP Fit Center  433 is at  -3.428721  2.703268  1.187204
      ESP Fit Center  434 is at  -3.719985  2.393103  1.187204
      ESP Fit Center  435 is at  -3.924963  2.020249  1.187204
      ESP Fit Center  436 is at  -4.030777  1.608133  1.187204
      ESP Fit Center  437 is at  -4.030777  1.182649  1.187204
      ESP Fit Center  438 is at  -1.184522  2.852780  0.812877
      ESP Fit Center  439 is at  -1.537962  3.074861  0.812877
      ESP Fit Center  440 is at  -1.931957  3.212725  0.812877
      ESP Fit Center  441 is at  -2.346752  3.259462  0.812877
      ESP Fit Center  442 is at  -2.761546  3.212725  0.812877
      ESP Fit Center  443 is at  -3.155542  3.074861  0.812877
      ESP Fit Center  444 is at  -3.508981  2.852780  0.812877
      ESP Fit Center  445 is at  -3.804141  2.557620  0.812877
      ESP Fit Center  446 is at  -4.026221  2.204181  0.812877
      ESP Fit Center  447 is at  -4.164086  1.810186  0.812877
      ESP Fit Center  448 is at  -4.210822  1.395391  0.812877
      ESP Fit Center  449 is at  -4.164086  0.980596  0.812877
      ESP Fit Center  450 is at  -1.084825  2.881045  0.412080
      ESP Fit Center  451 is at  -1.433700  3.117588  0.412080
      ESP Fit Center  452 is at  -1.825268  3.273603  0.412080
      ESP Fit Center  453 is at  -2.241221  3.341795  0.412080
      ESP Fit Center  454 is at  -2.662107  3.318975  0.412080
      ESP Fit Center  455 is at  -3.068248  3.206211  0.412080
      ESP Fit Center  456 is at  -3.440653  3.008774  0.412080
      ESP Fit Center  457 is at  -3.761908  2.735898  0.412080
      ESP Fit Center  458 is at  -4.016991  2.400341  0.412080
      ESP Fit Center  459 is at  -4.193977  2.017793  0.412080
      ESP Fit Center  460 is at  -4.284588  1.606143  0.412080
      ESP Fit Center  461 is at  -4.284588  1.184638  0.412080
      ESP Fit Center  462 is at  -1.084825  2.881045  0.002328
      ESP Fit Center  463 is at  -1.433700  3.117588  0.002328
      ESP Fit Center  464 is at  -1.825268  3.273603  0.002328
      ESP Fit Center  465 is at  -2.241221  3.341795  0.002328
      ESP Fit Center  466 is at  -2.662107  3.318975  0.002328
      ESP Fit Center  467 is at  -3.068248  3.206211  0.002328
      ESP Fit Center  468 is at  -3.440653  3.008774  0.002328
      ESP Fit Center  469 is at  -3.761908  2.735898  0.002328
      ESP Fit Center  470 is at  -4.016991  2.400341  0.002328
      ESP Fit Center  471 is at  -4.193977  2.017793  0.002328
      ESP Fit Center  472 is at  -4.284588  1.606143  0.002328
      ESP Fit Center  473 is at  -4.284588  1.184638  0.002328
      ESP Fit Center  474 is at  -0.889362  2.557620 -0.398469
      ESP Fit Center  475 is at  -1.184522  2.852780 -0.398469
      ESP Fit Center  476 is at  -1.537962  3.074861 -0.398469
      ESP Fit Center  477 is at  -1.931957  3.212725 -0.398469
      ESP Fit Center  478 is at  -2.346752  3.259462 -0.398469
      ESP Fit Center  479 is at  -2.761546  3.212725 -0.398469
      ESP Fit Center  480 is at  -3.155542  3.074861 -0.398469
      ESP Fit Center  481 is at  -3.508981  2.852780 -0.398469
      ESP Fit Center  482 is at  -3.804141  2.557620 -0.398469
      ESP Fit Center  483 is at  -4.026221  2.204181 -0.398469
      ESP Fit Center  484 is at  -4.164086  1.810186 -0.398469
      ESP Fit Center  485 is at  -4.210822  1.395391 -0.398469
      ESP Fit Center  486 is at  -0.859300  2.213124 -0.772796
      ESP Fit Center  487 is at  -1.109393  2.557348 -0.772796
      ESP Fit Center  488 is at  -1.437234  2.828561 -0.772796
      ESP Fit Center  489 is at  -1.822223  3.009723 -0.772796
      ESP Fit Center  490 is at  -2.240170  3.089451 -0.772796
      ESP Fit Center  491 is at  -2.664814  3.062735 -0.772796
      ESP Fit Center  492 is at  -3.069473  2.931253 -0.772796
      ESP Fit Center  493 is at  -3.428721  2.703268 -0.772796
      ESP Fit Center  494 is at  -3.719985  2.393103 -0.772796
      ESP Fit Center  495 is at  -3.924963  2.020249 -0.772796
      ESP Fit Center  496 is at  -4.030777  1.608133 -0.772796
      ESP Fit Center  497 is at  -4.030777  1.182649 -0.772796
      ESP Fit Center  498 is at  -1.121412  2.182869 -1.104292
      ESP Fit Center  499 is at  -1.392905  2.496188 -1.104292
      ESP Fit Center  500 is at  -1.741673  2.720328 -1.104292
      ESP Fit Center  501 is at  -2.139461  2.837129 -1.104292
      ESP Fit Center  502 is at  -2.554042  2.837129 -1.104292
      ESP Fit Center  503 is at  -2.951830  2.720328 -1.104292
      ESP Fit Center  504 is at  -3.300598  2.496188 -1.104292
      ESP Fit Center  505 is at  -3.572091  2.182869 -1.104292
      ESP Fit Center  506 is at  -3.744314  1.805752 -1.104292
      ESP Fit Center  507 is at  -3.803315  1.395391 -1.104292
      ESP Fit Center  508 is at  -1.495370  2.171528 -1.378469
      ESP Fit Center  509 is at  -1.833235  2.426672 -1.378469
      ESP Fit Center  510 is at  -2.240453  2.542535 -1.378469
      ESP Fit Center  511 is at  -2.662027  2.503471 -1.378469
      ESP Fit Center  512 is at  -3.041022  2.314754 -1.378469
      ESP Fit Center  513 is at  -3.326252  2.001872 -1.378469
      ESP Fit Center  514 is at  -3.479195  1.607081 -1.378469
      ESP Fit Center  515 is at  -1.948150  2.085790 -1.583345
      ESP Fit Center  516 is at  -2.346752  2.192595 -1.583345
      ESP Fit Center  517 is at  -2.745353  2.085790 -1.583345
      ESP Fit Center  518 is at  -3.037150  1.793993 -1.583345
      ESP Fit Center  519 is at  -2.142998  1.748302 -1.709965
      ESP Fit Center  520 is at  -2.550505  1.748302 -1.709965
      ESP Fit Center  521 is at  -1.919213 -0.869658  3.291027
      ESP Fit Center  522 is at  -1.511706 -0.869658  3.248196
      ESP Fit Center  523 is at  -1.715460 -0.516746  3.248196
      ESP Fit Center  524 is at  -2.122967 -0.516746  3.248196
      ESP Fit Center  525 is at  -2.326720 -0.869658  3.248196
      ESP Fit Center  526 is at  -2.122967 -1.222569  3.248196
      ESP Fit Center  527 is at  -1.715460 -1.222569  3.248196
      ESP Fit Center  528 is at  -1.122009 -0.869658  3.121576
      ESP Fit Center  529 is at  -1.228814 -0.471056  3.121576
      ESP Fit Center  530 is at  -1.520611 -0.179259  3.121576
      ESP Fit Center  531 is at  -1.919213 -0.072454  3.121576
      ESP Fit Center  532 is at  -2.317815 -0.179259  3.121576
      ESP Fit Center  533 is at  -2.609612 -0.471056  3.121576
      ESP Fit Center  534 is at  -2.716417 -0.869658  3.121576
      ESP Fit Center  535 is at  -2.609612 -1.268260  3.121576
      ESP Fit Center  536 is at  -2.317815 -1.560056  3.121576
      ESP Fit Center  537 is at  -1.919213 -1.666862  3.121576
      ESP Fit Center  538 is at  -1.520611 -1.560056  3.121576
      ESP Fit Center  539 is at  -1.228814 -1.268260  3.121576
      ESP Fit Center  540 is at  -0.767154 -0.869658  2.916700
      ESP Fit Center  541 is at  -0.844950 -0.453486  2.916700
      ESP Fit Center  542 is at  -1.067831 -0.093521  2.916700
      ESP Fit Center  543 is at  -1.405696  0.161623  2.916700
      ESP Fit Center  544 is at  -1.812915  0.277487  2.916700
      ESP Fit Center  545 is at  -2.234489  0.238422  2.916700
      ESP Fit Center  546 is at  -2.613484  0.049705  2.916700
      ESP Fit Center  547 is at  -2.898714 -0.263177  2.916700
      ESP Fit Center  548 is at  -3.051656 -0.657967  2.916700
      ESP Fit Center  549 is at  -3.051656 -1.081348  2.916700
      ESP Fit Center  550 is at  -2.898714 -1.476139  2.916700
      ESP Fit Center  551 is at  -2.613484 -1.789021  2.916700
      ESP Fit Center  552 is at  -2.234489 -1.977738  2.916700
      ESP Fit Center  553 is at  -1.812915 -2.016802  2.916700
      ESP Fit Center  554 is at  -1.405696 -1.900939  2.916700
      ESP Fit Center  555 is at  -1.067831 -1.645795  2.916700
      ESP Fit Center  556 is at  -0.844950 -1.285829  2.916700
      ESP Fit Center  557 is at  -0.462649 -0.869658  2.642523
      ESP Fit Center  558 is at  -0.521650 -0.459296  2.642523
      ESP Fit Center  559 is at  -0.693874 -0.082180  2.642523
      ESP Fit Center  560 is at  -0.965367  0.231140  2.642523
      ESP Fit Center  561 is at  -1.314135  0.455279  2.642523
      ESP Fit Center  562 is at  -1.711922  0.572080  2.642523
      ESP Fit Center  563 is at  -2.126504  0.572080  2.642523
      ESP Fit Center  564 is at  -2.524292  0.455279  2.642523
      ESP Fit Center  565 is at  -2.873060  0.231140  2.642523
      ESP Fit Center  566 is at  -3.144553 -0.082180  2.642523
      ESP Fit Center  567 is at  -3.316776 -0.459296  2.642523
      ESP Fit Center  568 is at  -3.375777 -0.869658  2.642523
      ESP Fit Center  569 is at  -3.316776 -1.280019  2.642523
      ESP Fit Center  570 is at  -3.144553 -1.657136  2.642523
      ESP Fit Center  571 is at  -2.873060 -1.970455  2.642523
      ESP Fit Center  572 is at  -2.524292 -2.194595  2.642523
      ESP Fit Center  573 is at  -2.126504 -2.311396  2.642523
      ESP Fit Center  574 is at  -1.711922 -2.311396  2.642523
      ESP Fit Center  575 is at  -1.314135 -2.194595  2.642523
      ESP Fit Center  576 is at  -0.965367 -1.970455  2.642523
      ESP Fit Center  577 is at  -0.693874 -1.657136  2.642523
      ESP Fit Center  578 is at  -0.521650 -1.280019  2.642523
      ESP Fit Center  579 is at  -0.681855  0.292299  2.311027
      ESP Fit Center  580 is at  -1.009695  0.563513  2.311027
      ESP Fit Center  581 is at  -3.001183  0.438219  2.311027
      ESP Fit Center  582 is at  -3.292446  0.128055  2.311027
      ESP Fit Center  583 is at  -3.497425 -0.244800  2.311027
      ESP Fit Center  584 is at  -3.603238 -0.656916  2.311027
      ESP Fit Center  585 is at  -3.603238 -1.082400  2.311027
      ESP Fit Center  586 is at  -3.497425 -1.494516  2.311027
      ESP Fit Center  587 is at  -3.292446 -1.867370  2.311027
      ESP Fit Center  588 is at  -3.001183 -2.177534  2.311027
      ESP Fit Center  589 is at  -2.641935 -2.405520  2.311027
      ESP Fit Center  590 is at  -2.237276 -2.537002  2.311027
      ESP Fit Center  591 is at  -1.812632 -2.563718  2.311027
      ESP Fit Center  592 is at  -1.394685 -2.483990  2.311027
      ESP Fit Center  593 is at  -1.009695 -2.302828  2.311027
      ESP Fit Center  594 is at  -0.681855 -2.031615  2.311027
      ESP Fit Center  595 is at  -0.431762 -1.687391  2.311027
      ESP Fit Center  596 is at  -0.275131 -1.291786  2.311027
      ESP Fit Center  597 is at  -3.736548 -0.454863  1.936700
      ESP Fit Center  598 is at  -3.783284 -0.869658  1.936700
      ESP Fit Center  599 is at  -3.736548 -1.284452  1.936700
      ESP Fit Center  600 is at  -3.598683 -1.678448  1.936700
      ESP Fit Center  601 is at  -3.376602 -2.031887  1.936700
      ESP Fit Center  602 is at  -3.081442 -2.327047  1.936700
      ESP Fit Center  603 is at  -2.728003 -2.549127  1.936700
      ESP Fit Center  604 is at  -2.334008 -2.686992  1.936700
      ESP Fit Center  605 is at  -1.919213 -2.733728  1.936700
      ESP Fit Center  606 is at  -1.504418 -2.686992  1.936700
      ESP Fit Center  607 is at  -1.110423 -2.549127  1.936700
      ESP Fit Center  608 is at  -0.756984 -2.327047  1.936700
      ESP Fit Center  609 is at  -0.461824 -2.031887  1.936700
      ESP Fit Center  610 is at  -0.239743 -1.678448  1.936700
      ESP Fit Center  611 is at  -3.857049 -1.080410  1.535903
      ESP Fit Center  612 is at  -3.766438 -1.492060  1.535903
      ESP Fit Center  613 is at  -3.589453 -1.874608  1.535903
      ESP Fit Center  614 is at  -3.334369 -2.210165  1.535903
      ESP Fit Center  615 is at  -3.013114 -2.483041  1.535903
      ESP Fit Center  616 is at  -2.640710 -2.680478  1.535903
      ESP Fit Center  617 is at  -2.234569 -2.793242  1.535903
      ESP Fit Center  618 is at  -1.813682 -2.816062  1.535903
      ESP Fit Center  619 is at  -1.397730 -2.747870  1.535903
      ESP Fit Center  620 is at  -1.006162 -2.591855  1.535903
      ESP Fit Center  621 is at  -0.657287 -2.355312  1.535903
      ESP Fit Center  622 is at  -0.367418 -2.049301  1.535903
      ESP Fit Center  623 is at  -0.150110 -1.688132  1.535903
      ESP Fit Center  624 is at  -3.766438 -1.492060  1.126151
      ESP Fit Center  625 is at  -3.589453 -1.874608  1.126151
      ESP Fit Center  626 is at  -3.334369 -2.210165  1.126151
      ESP Fit Center  627 is at  -3.013114 -2.483041  1.126151
      ESP Fit Center  628 is at  -2.640710 -2.680478  1.126151
      ESP Fit Center  629 is at  -2.234569 -2.793242  1.126151
      ESP Fit Center  630 is at  -1.813682 -2.816062  1.126151
      ESP Fit Center  631 is at  -1.397730 -2.747870  1.126151
      ESP Fit Center  632 is at  -1.006162 -2.591855  1.126151
      ESP Fit Center  633 is at  -0.657287 -2.355312  1.126151
      ESP Fit Center  634 is at  -0.367418 -2.049301  1.126151
      ESP Fit Center  635 is at  -0.150110 -1.688132  1.126151
      ESP Fit Center  636 is at  -3.081442 -2.327047  0.725354
      ESP Fit Center  637 is at  -2.728003 -2.549127  0.725354
      ESP Fit Center  638 is at  -2.334008 -2.686992  0.725354
      ESP Fit Center  639 is at  -1.919213 -2.733728  0.725354
      ESP Fit Center  640 is at  -1.504418 -2.686992  0.725354
      ESP Fit Center  641 is at  -1.110423 -2.549127  0.725354
      ESP Fit Center  642 is at  -0.756984 -2.327047  0.725354
      ESP Fit Center  643 is at  -0.461824 -2.031887  0.725354
      ESP Fit Center  644 is at   3.580037 -1.173224  2.277793
      ESP Fit Center  645 is at   3.987544 -1.173224  2.234962
      ESP Fit Center  646 is at   3.783791 -0.820312  2.234962
      ESP Fit Center  647 is at   3.376284 -0.820312  2.234962
      ESP Fit Center  648 is at   3.172530 -1.173224  2.234962
      ESP Fit Center  649 is at   3.376284 -1.526135  2.234962
      ESP Fit Center  650 is at   3.783791 -1.526135  2.234962
      ESP Fit Center  651 is at   4.377241 -1.173224  2.108342
      ESP Fit Center  652 is at   4.270436 -0.774622  2.108342
[...]
 4734 Fit      -0.260770
 4735 Fit      -0.257400
 4736 Fit      -0.254728
 4737 Fit      -0.252765
 4738 Fit      -0.251559
 4739 Fit      -0.251196
 4740 Fit      -0.251809
 4741 Fit      -0.253580
 4742 Fit      -0.264079
 4743 Fit      -0.259953
 4744 Fit      -0.256568
 4745 Fit      -0.253893
 4746 Fit      -0.251942
 4747 Fit      -0.250770
 4748 Fit      -0.250483
 4749 Fit      -0.251261
 4750 Fit      -0.253390
 4751 Fit      -0.269037
 4752 Fit      -0.263967
 4753 Fit      -0.259756
 4754 Fit      -0.256314
 4755 Fit      -0.253597
 4756 Fit      -0.251605
 4757 Fit      -0.250385
 4758 Fit      -0.250039
 4759 Fit      -0.250759
 4760 Fit      -0.266112
 4761 Fit      -0.261391
 4762 Fit      -0.257541
 4763 Fit      -0.254472
 4764 Fit      -0.252144
 4765 Fit      -0.250563
 4766 Fit      -0.249787
 4767 Fit      -0.249945
 4768 Fit      -0.271149
 4769 Fit      -0.265315
 4770 Fit      -0.260600
 4771 Fit      -0.256812
 4772 Fit      -0.253831
 4773 Fit      -0.251592
 4774 Fit      -0.250064
 4775 Fit      -0.270577
 4776 Fit      -0.264785
 4777 Fit      -0.260143
 4778 Fit      -0.256424
 4779 Fit      -0.253468
 4780 Fit      -0.251145
 4781 Fit      -0.267789
 4782 Fit      -0.262381
 4783 Fit      -0.258054
 4784 Fit      -0.254528
 4785 Fit      -0.251533
 4786 Fit      -0.266674
 4787 Fit      -0.261254
 4788 Fit      -0.256805
 4789 Fit      -0.265405
 4790 Fit      -0.259979
 4791 Fit      -0.204500
 4792 Fit      -0.197652
 4793 Fit      -0.201539
 4794 Fit      -0.209157
 4795 Fit      -0.212711
 4796 Fit      -0.207739
 4797 Fit      -0.200419
 4798 Fit      -0.191885
 4799 Fit      -0.193776
 4800 Fit      -0.198871
 4801 Fit      -0.206376
 4802 Fit      -0.214388
 4803 Fit      -0.220758
 4804 Fit      -0.222709
 4805 Fit      -0.218804
 4806 Fit      -0.211197
 4807 Fit      -0.203219
 4808 Fit      -0.196891
 4809 Fit      -0.193012
 4810 Fit      -0.187010
 4811 Fit      -0.187966
 4812 Fit      -0.190983
 4813 Fit      -0.196448
 4814 Fit      -0.203943
 4815 Fit      -0.212127
 4816 Fit      -0.231349
 4817 Fit      -0.223709
 4818 Fit      -0.214774
 4819 Fit      -0.206376
 4820 Fit      -0.199332
 4821 Fit      -0.193876
 4822 Fit      -0.190025
 4823 Fit      -0.187740
 4824 Fit      -0.182911
 4825 Fit      -0.183236
 4826 Fit      -0.184807
 4827 Fit      -0.238419
 4828 Fit      -0.228260
 4829 Fit      -0.218321
 4830 Fit      -0.209528
 4831 Fit      -0.202133
 4832 Fit      -0.196104
 4833 Fit      -0.191330
 4834 Fit      -0.187706
 4835 Fit      -0.185142
 4836 Fit      -0.183561
 4837 Fit      -0.179520
 4838 Fit      -0.179383
 4839 Fit      -0.236812
 4840 Fit      -0.225168
 4841 Fit      -0.215193
 4842 Fit      -0.206878
 4843 Fit      -0.200023
 4844 Fit      -0.194409
 4845 Fit      -0.189863
 4846 Fit      -0.186261
 4847 Fit      -0.183509
 4848 Fit      -0.181524
 4849 Fit      -0.180222
 4850 Fit      -0.176802
 4851 Fit      -0.176306
 4852 Fit      -0.236885
 4853 Fit      -0.224541
 4854 Fit      -0.214465
 4855 Fit      -0.206249
 4856 Fit      -0.199512
 4857 Fit      -0.193962
 4858 Fit      -0.189395
 4859 Fit      -0.185678
 4860 Fit      -0.182716
 4861 Fit      -0.180435
 4862 Fit      -0.178756
 4863 Fit      -0.177582
 4864 Fit      -0.174741
 4865 Fit      -0.174020
 4866 Fit      -0.235141
 4867 Fit      -0.223011
 4868 Fit      -0.213313
 4869 Fit      -0.205453
 4870 Fit      -0.198992
 4871 Fit      -0.193623
 4872 Fit      -0.189143
 4873 Fit      -0.185420
 4874 Fit      -0.182368
 4875 Fit      -0.179923
 4876 Fit      -0.178024
 4877 Fit      -0.176599
 4878 Fit      -0.175547
 4879 Fit      -0.173319
 4880 Fit      -0.172525
 4881 Fit      -0.236748
 4882 Fit      -0.224217
 4883 Fit      -0.214335
 4884 Fit      -0.206379
 4885 Fit      -0.199847
 4886 Fit      -0.194402
 4887 Fit      -0.189822
 4888 Fit      -0.185964
 4889 Fit      -0.182739
 4890 Fit      -0.180087
 4891 Fit      -0.177959
 4892 Fit      -0.176303
 4893 Fit      -0.175049
 4894 Fit      -0.174099
 4895 Fit      -0.172508
 4896 Fit      -0.171779
 4897 Fit      -0.232589
 4898 Fit      -0.220705
 4899 Fit      -0.211373
 4900 Fit      -0.203858
 4901 Fit      -0.197673
 4902 Fit      -0.192499
 4903 Fit      -0.188132
 4904 Fit      -0.184446
 4905 Fit      -0.181362
 4906 Fit      -0.178830
 4907 Fit      -0.176807
 4908 Fit      -0.175245
 4909 Fit      -0.174078
 4910 Fit      -0.173211
 4911 Fit      -0.172254
 4912 Fit      -0.171767
 4913 Fit      -0.227363
 4914 Fit      -0.216662
 4915 Fit      -0.208176
 4916 Fit      -0.201277
 4917 Fit      -0.195552
 4918 Fit      -0.190729
 4919 Fit      -0.186638
 4920 Fit      -0.183175
 4921 Fit      -0.180275
 4922 Fit      -0.177899
 4923 Fit      -0.176012
 4924 Fit      -0.174573
 4925 Fit      -0.173527
 4926 Fit      -0.172791
 4927 Fit      -0.172488
 4928 Fit      -0.172360
 4929 Fit      -0.225336
 4930 Fit      -0.215111
 4931 Fit      -0.206944
 4932 Fit      -0.200271
 4933 Fit      -0.194714
 4934 Fit      -0.190021
 4935 Fit      -0.186033
 4936 Fit      -0.182655
 4937 Fit      -0.179829
 4938 Fit      -0.177522
 4939 Fit      -0.175704
 4940 Fit      -0.174344
 4941 Fit      -0.173398
 4942 Fit      -0.172806
 4943 Fit      -0.173124
 4944 Fit      -0.173424
 4945 Fit      -0.215772
 4946 Fit      -0.207487
 4947 Fit      -0.200706
 4948 Fit      -0.195062
 4949 Fit      -0.190300
 4950 Fit      -0.186260
 4951 Fit      -0.182840
 4952 Fit      -0.179985
 4953 Fit      -0.177662
 4954 Fit      -0.175848
 4955 Fit      -0.174520
 4956 Fit      -0.173648
 4957 Fit      -0.173196
 4958 Fit      -0.174076
 4959 Fit      -0.174792
 4960 Fit      -0.176250
 4961 Fit      -0.207621
 4962 Fit      -0.200941
 4963 Fit      -0.195347
 4964 Fit      -0.190617
 4965 Fit      -0.186600
 4966 Fit      -0.183200
 4967 Fit      -0.180363
 4968 Fit      -0.178061
 4969 Fit      -0.176278
 4970 Fit      -0.175000
 4971 Fit      -0.174213
 4972 Fit      -0.173903
 4973 Fit      -0.175271
 4974 Fit      -0.176384
 4975 Fit      -0.178526
 4976 Fit      -0.204538
 4977 Fit      -0.198318
 4978 Fit      -0.193075
 4979 Fit      -0.188642
 4980 Fit      -0.184904
 4981 Fit      -0.181791
 4982 Fit      -0.179268
 4983 Fit      -0.177320
 4984 Fit      -0.175940
 4985 Fit      -0.175128
 4986 Fit      -0.174892
 4987 Fit      -0.176656
 4988 Fit      -0.178109
 4989 Fit      -0.180833
 4990 Fit      -0.197250
 4991 Fit      -0.192082
 4992 Fit      -0.187734
 4993 Fit      -0.184119
 4994 Fit      -0.181186
 4995 Fit      -0.178916
 4996 Fit      -0.177307
 4997 Fit      -0.176369
 4998 Fit      -0.176130
 4999 Fit      -0.178214
 5000 Fit      -0.179871
 5001 Fit      -0.182890
 5002 Fit      -0.196168
 5003 Fit      -0.191188
 5004 Fit      -0.187017
 5005 Fit      -0.183613
 5006 Fit      -0.180958
 5007 Fit      -0.179057
 5008 Fit      -0.177932
 5009 Fit      -0.177624
 5010 Fit      -0.179959
 5011 Fit      -0.181751
 5012 Fit      -0.184960
 5013 Fit      -0.191531
 5014 Fit      -0.187304
 5015 Fit      -0.183939
 5016 Fit      -0.181469
 5017 Fit      -0.179937
 5018 Fit      -0.179403
 5019 Fit      -0.181943
 5020 Fit      -0.183880
 5021 Fit      -0.188663
 5022 Fit      -0.185056
 5023 Fit      -0.182642
 5024 Fit      -0.181563
 5025 Fit      -0.184312
 5026 Fit      -0.214473
 5027 Fit      -0.211897
 5028 Fit      -0.211220
 5029 Fit      -0.212954
 5030 Fit      -0.217426
 5031 Fit      -0.224993
 5032 Fit      -0.236193
 5033 Fit      -0.251840
 5034 Fit      -0.210308
 5035 Fit      -0.221528
 5036 Fit      -0.231740
 5037 Fit      -0.246024
 5038 Fit      -0.240191
 5039 Fit      -0.257403
 5040 Fit      -0.255880
 5041 Fit      -0.253873
 5042 Fit      -0.257896
 5043 Fit      -0.256708
 5044 Fit      -0.256061
 5045 Fit      -0.213102
 5046 Fit      -0.219297
 5047 Fit      -0.228349
 5048 Fit      -0.219228
 5049 Fit      -0.200497
 5050 Fit      -0.194875
 5051 Fit      -0.197055
 5052 Fit      -0.185529
 5053 Fit      -0.183516
 5054 Fit      -0.183473
 5055 Fit      -0.182866
 5056 Fit      -0.228064
 5057 Fit      -0.223285
 5058 Fit      -0.232100
 5059 Fit      -0.238462
 5060 Fit      -0.233713
 5061 Fit      -0.219702
 5062 Fit      -0.253164
 5063 Fit      -0.249483
 5064 Fit      -0.240000
 5065 Fit      -0.259421
 5066 Fit      -0.246697
 5067 Fit      -0.258685
 5068 Fit      -0.249916
 5069 Fit      -0.249137
 5070 Fit      -0.247007
 5071 Fit      -0.247490
 5072 Fit      -0.246758
 5073 Fit      -0.236273
 5074 Fit      -0.232242
 5075 Fit      -0.227784
 5076 Fit      -0.220113
 5077 Fit      -0.215852
 5078 Fit      -0.215244
 5079 Fit      -0.209332
 5080 Fit      -0.210091
 5081 Fit      -0.204510
 5082 Fit      -0.213113
 5083 Fit      -0.205412
 5084 Fit      -0.200117
 5085 Fit      -0.196757
 5086 Fit      -0.185889
 5087 Fit      -0.210996
 5088 Fit      -0.203007
 5089 Fit      -0.197314
 5090 Fit      -0.193495
 5091 Fit      -0.191055
 5092 Fit      -0.183160
 5093 Fit      -0.209284
 5094 Fit      -0.201155
 5095 Fit      -0.195166
 5096 Fit      -0.190981
 5097 Fit      -0.188155
 5098 Fit      -0.186221
 5099 Fit      -0.184804
 5100 Fit      -0.183727
 5101 Fit      -0.183070
 5102 Fit      -0.182598
 5103 Fit      -0.248900
 5104 Fit      -0.238329
 5105 Fit      -0.226228
 5106 Fit      -0.214522
 5107 Fit      -0.204499
 5108 Fit      -0.196690
 5109 Fit      -0.191056
 5110 Fit      -0.187222
 5111 Fit      -0.184700
 5112 Fit      -0.183106
 5113 Fit      -0.182334
 5114 Fit      -0.183433
 5115 Fit      -0.233582
 5116 Fit      -0.226405
 5117 Fit      -0.216572
 5118 Fit      -0.206523
 5119 Fit      -0.197923
 5120 Fit      -0.191451
 5121 Fit      -0.187059
 5122 Fit      -0.184386
 5123 Fit      -0.183166
 5124 Fit      -0.185903
 5125 Fit      -0.218081
 5126 Fit      -0.211731
 5127 Fit      -0.202679
 5128 Fit      -0.194478
 5129 Fit      -0.188833
 5130 Fit      -0.186000
 5131 Fit      -0.199446
 5132 Fit      -0.192087
 5133 Fit      -0.207894
 5134 Fit      -0.209078
 5135 Fit      -0.214771
 5136 Fit      -0.204865
 5137 Fit      -0.201946
 5138 Fit      -0.202542
 5139 Fit      -0.206684
 5140 Fit      -0.214563
 5141 Fit      -0.226562
 5142 Fit      -0.204984
 5143 Fit      -0.199244
 5144 Fit      -0.196920
 5145 Fit      -0.197718
 5146 Fit      -0.201559
 5147 Fit      -0.208575
 5148 Fit      -0.219122
 5149 Fit      -0.233815
 5150 Fit      -0.199390
 5151 Fit      -0.194692
 5152 Fit      -0.192995
 5153 Fit      -0.193965
 5154 Fit      -0.197500
 5155 Fit      -0.203685
 5156 Fit      -0.212789
 5157 Fit      -0.225300
 5158 Fit      -0.241990
 5159 Fit      -0.199613
 5160 Fit      -0.193495
 5161 Fit      -0.190592
 5162 Fit      -0.190365
 5163 Fit      -0.192582
 5164 Fit      -0.197216
 5165 Fit      -0.204417
 5166 Fit      -0.214513
 5167 Fit      -0.228049
 5168 Fit      -0.245870
 5169 Fit      -0.200648
 5170 Fit      -0.193445
 5171 Fit      -0.189577
 5172 Fit      -0.188358
 5173 Fit      -0.189452
 5174 Fit      -0.192749
 5175 Fit      -0.198296
 5176 Fit      -0.206288
 5177 Fit      -0.217075
 5178 Fit      -0.231197
 5179 Fit      -0.249442
 5180 Fit      -0.193389
 5181 Fit      -0.189205
 5182 Fit      -0.187615
 5183 Fit      -0.188260
 5184 Fit      -0.190997
 5185 Fit      -0.195839
 5186 Fit      -0.202926
 5187 Fit      -0.212529
 5188 Fit      -0.225066
 5189 Fit      -0.241126
 5190 Fit      -0.199093
 5191 Fit      -0.192383
 5192 Fit      -0.188822
 5193 Fit      -0.187801
 5194 Fit      -0.189026
 5195 Fit      -0.192403
 5196 Fit      -0.197984
 5197 Fit      -0.205955
 5198 Fit      -0.216636
 5199 Fit      -0.230500
 5200 Fit      -0.248190
 5201 Fit      -0.196913
 5202 Fit      -0.191646
 5203 Fit      -0.189277
 5204 Fit      -0.189399
 5205 Fit      -0.191842
 5206 Fit      -0.196605
 5207 Fit      -0.203837
 5208 Fit      -0.213830
 5209 Fit      -0.227036
 5210 Fit      -0.244099
 5211 Fit      -0.195985
 5212 Fit      -0.192342
 5213 Fit      -0.191327
 5214 Fit      -0.192750
 5215 Fit      -0.196579
 5216 Fit      -0.202926
 5217 Fit      -0.212045
 5218 Fit      -0.224354
 5219 Fit      -0.240477
 5220 Fit      -0.200014
 5221 Fit      -0.195934
 5222 Fit      -0.194670
 5223 Fit      -0.196173
 5224 Fit      -0.200492
 5225 Fit      -0.207817
 5226 Fit      -0.218512
 5227 Fit      -0.233163
 5228 Fit      -0.200591
 5229 Fit      -0.199163
 5230 Fit      -0.200775
 5231 Fit      -0.205651
 5232 Fit      -0.214104
 5233 Fit      -0.226622
 5234 Fit      -0.205006
 5235 Fit      -0.207538
 5236 Fit      -0.214330
 5237 Fit      -0.225926
 5238 Fit      -0.231722
 5239 Fit      -0.222798
 5240 Fit      -0.223808
 5241 Fit      -0.233931
 5242 Fit      -0.244474
 5243 Fit      -0.242155
 5244 Fit      -0.230829
 5245 Fit      -0.217050
 5246 Fit      -0.215636
 5247 Fit      -0.218175
 5248 Fit      -0.225381
 5249 Fit      -0.237323
 5250 Fit      -0.251589
 5251 Fit      -0.262186
 5252 Fit      -0.263286
 5253 Fit      -0.255430
 5254 Fit      -0.243331
 5255 Fit      -0.231344
 5256 Fit      -0.222259
 5257 Fit      -0.214145
 5258 Fit      -0.212417
 5259 Fit      -0.212432
 5260 Fit      -0.214647
 5261 Fit      -0.219866
 5262 Fit      -0.228792
 5263 Fit      -0.241713
 5264 Fit      -0.257930
 5265 Fit      -0.258596
 5266 Fit      -0.245128
 5267 Fit      -0.233305
 5268 Fit      -0.224140
 5269 Fit      -0.217857
 5270 Fit      -0.214020
 5271 Fit      -0.212542
 5272 Fit      -0.211676
 5273 Fit      -0.211746
 5274 Fit      -0.213561
 5275 Fit      -0.217922
 5276 Fit      -0.225503
 5277 Fit      -0.236900
 5278 Fit      -0.252584
 5279 Fit      -0.266410
 5280 Fit      -0.251380
 5281 Fit      -0.238553
 5282 Fit      -0.228536
 5283 Fit      -0.221301
 5284 Fit      -0.216640
 5285 Fit      -0.214935
 5286 Fit      -0.213485
 5287 Fit      -0.213000
 5288 Fit      -0.214464
 5289 Fit      -0.218548
 5290 Fit      -0.225798
 5291 Fit      -0.236841
 5292 Fit      -0.252486
 5293 Fit      -0.262812
 5294 Fit      -0.221317
 5295 Fit      -0.190981
 5296 Fit      -0.191984
 5297 Fit      -0.194386
 5298 Fit      -0.198786
 5299 Fit      -0.205723
 5300 Fit      -0.180381
 5301 Fit      -0.181086
 5302 Fit      -0.181989
 5303 Fit      -0.182872
 5304 Fit      -0.183833
 5305 Fit      -0.185244
 5306 Fit      -0.187614
 5307 Fit      -0.191466
 5308 Fit      -0.197292
 5309 Fit      -0.205549
 5310 Fit      -0.216671
 5311 Fit      -0.182885
 5312 Fit      -0.181092
 5313 Fit      -0.180273
 5314 Fit      -0.176460
 5315 Fit      -0.176794
 5316 Fit      -0.177597
 5317 Fit      -0.178800
 5318 Fit      -0.180585
 5319 Fit      -0.183341
 5320 Fit      -0.187545
 5321 Fit      -0.193664
 5322 Fit      -0.202085
 5323 Fit      -0.213030
 5324 Fit      -0.226334
 5325 Fit      -0.236410
 5326 Fit      -0.183390
 5327 Fit      -0.180301
 5328 Fit      -0.178093
 5329 Fit      -0.176825
 5330 Fit      -0.174551
 5331 Fit      -0.174741
 5332 Fit      -0.175710
 5333 Fit      -0.177501
 5334 Fit      -0.180365
 5335 Fit      -0.184690
 5336 Fit      -0.190862
 5337 Fit      -0.199114
 5338 Fit      -0.209316
 5339 Fit      -0.220653
 5340 Fit      -0.231311
 5341 Fit      -0.240518
 5342 Fit      -0.236370
 5343 Fit      -0.227718
 5344 Fit      -0.216944
 5345 Fit      -0.206199
 5346 Fit      -0.196863
 5347 Fit      -0.189471
 5348 Fit      -0.183918
 5349 Fit      -0.179849
 5350 Fit      -0.176998
 5351 Fit      -0.175258
 5352 Fit      -0.174531
 5353 Fit      -0.174778
 5354 Fit      -0.176323
 5355 Fit      -0.179316
 5356 Fit      -0.184063
 5357 Fit      -0.190799
 5358 Fit      -0.199339
 5359 Fit      -0.208671
 5360 Fit      -0.216709
 5361 Fit      -0.220859
 5362 Fit      -0.219563
 5363 Fit      -0.213442
 5364 Fit      -0.204732
 5365 Fit      -0.195795
 5366 Fit      -0.188133
 5367 Fit      -0.182268
 5368 Fit      -0.178152
 5369 Fit      -0.175617
 5370 Fit      -0.176385
 5371 Fit      -0.177063
 5372 Fit      -0.180255
 5373 Fit      -0.186053
 5374 Fit      -0.193931
 5375 Fit      -0.201753
 5376 Fit      -0.205927
 5377 Fit      -0.204023
 5378 Fit      -0.197296
 5379 Fit      -0.189229
 5380 Fit      -0.182515
 5381 Fit      -0.178184
 5382 Fit      -0.180201
 5383 Fit      -0.182549
 5384 Fit      -0.189536
 5385 Fit      -0.194587
 5386 Fit      -0.191089
 5387 Fit      -0.183823
 5388 Fit      -0.186166
 5389 Fit      -0.239533
 5390 Fit      -0.241699
 5391 Fit      -0.231385
 5392 Fit      -0.239556
 5393 Fit      -0.228400
 5394 Fit      -0.242444
 5395 Fit      -0.229228
 5396 Fit      -0.220367
 5397 Fit      -0.246450
 5398 Fit      -0.231777
 5399 Fit      -0.221132
 5400 Fit      -0.245108
 5401 Fit      -0.230191
 5402 Fit      -0.219151
 5403 Fit      -0.244281
 5404 Fit      -0.229494
 5405 Fit      -0.218221
 5406 Fit      -0.249286
 5407 Fit      -0.233849
 5408 Fit      -0.221107
 5409 Fit      -0.244114
 5410 Fit      -0.229619
 5411 Fit      -0.190159
 5412 Fit      -0.181714
 5413 Fit      -0.195886
 5414 Fit      -0.186922
 5415 Fit      -0.174479
 5416 Fit      -0.176860
 5417 Fit      -0.208499
 5418 Fit      -0.185777
 5419 Fit      -0.177745
 5420 Fit      -0.168488
 5421 Fit      -0.169975
 5422 Fit      -0.177213
 5423 Fit      -0.170923
 5424 Fit      -0.163737
 5425 Fit      -0.164871
 5426 Fit      -0.169050
 5427 Fit      -0.171276
 5428 Fit      -0.165829
 5429 Fit      -0.160204
 5430 Fit      -0.161189
 5431 Fit      -0.164905
 5432 Fit      -0.175416
 5433 Fit      -0.167100
 5434 Fit      -0.162105
 5435 Fit      -0.157859
 5436 Fit      -0.158742
 5437 Fit      -0.162040
 5438 Fit      -0.171515
 5439 Fit      -0.163973
 5440 Fit      -0.159529
 5441 Fit      -0.156676
 5442 Fit      -0.157618
 5443 Fit      -0.160943
 5444 Fit      -0.170096
 5445 Fit      -0.162589
 5446 Fit      -0.158249
 5447 Fit      -0.156626
 5448 Fit      -0.157640
 5449 Fit      -0.160947
 5450 Fit      -0.169226
 5451 Fit      -0.162088
 5452 Fit      -0.158026
 5453 Fit      -0.157683
 5454 Fit      -0.158842
 5455 Fit      -0.169675
 5456 Fit      -0.162771
 5457 Fit      -0.158913
 5458 Fit      -0.159820
 5459 Fit      -0.161270
 5460 Fit      -0.172068
 5461 Fit      -0.164867
 5462 Fit      -0.160935
 5463 Fit      -0.162999
 5464 Fit      -0.168045
 5465 Fit      -0.163979
 5466 Fit      -0.167165
 5467 Fit      -0.171893
 5468 Fit      -0.167910
 5469 Fit      -0.177077
 5470 Fit      -0.172792
 -----------------------------------------------------------------
 Leave Link  602 at Sun Jul 19 16:08:33 2015, MaxMem=   33554432 cpu:       1.3

 Test job not archived.
 1\1\GINC-NID04218\FOpt\RHF\6-31G(d)\C3H5O6P1(2-)\NMIH\19-Jul-2015\0\\#
 HF/6-31G* SCF=tight Test Pop=MK iop(6/33=2) iop(6/42=6) opt\\15 atoms\
 \-2,1\P,-1.8249241927,0.4804813456,-0.0492439829\O,-0.6966063329,-0.56
 18339915,0.7944453494\O,2.7418679212,-1.3363753417,0.0131053784\O,-2.7
 327950803,0.8926245263,1.0679424797\O,-2.3924187747,-0.4226732649,-1.1
 082318683\O,-0.8922628513,1.5561883539,-0.5776636361\O,2.8710285335,1.
 2295509978,-0.4177975108\C,0.2928257953,-1.1509150266,0.0549330942\C,1
 .6512443226,-0.5758958878,0.4839119472\C,1.8212200751,0.8656938922,0.0
 604509181\H,0.3401928744,-2.2281601134,0.245080549\H,0.1553060159,-1.0
 246289259,-1.0141289327\H,1.6508360719,-0.5745369111,1.5753327879\H,0.
 9587076153,1.5142076157,0.1855434008\H,3.3297780069,-0.7032272685,-0.3
 856799741\\Version=AM64L-G09RevC.01\State=1-A\HF=-906.3918691\RMSD=3.6
 25e-09\RMSF=2.777e-05\Dipole=4.2788788,-1.0624297,0.5136689\Quadrupole
 =-21.0436193,8.1832831,12.8603362,3.481292,2.1207787,0.4181391\PG=C01 
 [X(C3H5O6P1)]\\@


 ALTHOUGH J.J. COULD DIAGNOSE THE FAULTS OF AN
 APPARATUS WITH UNCANNY ACCURACY, IT WAS JUST AS
 WELL NOT TO LET HIM HANDLE IT.
   -- GEORGE THOMPSON, ABOUT HIS FATHER
 Job cpu time:  0 days  0 hours 24 minutes 23.5 seconds.
 File lengths (MBytes):  RWF=     23 Int=      0 D2E=      0 Chk=      3 Scr=      1
 Normal termination of Gaussian 09 at Sun Jul 19 16:08:33 2015.
