 Entering Gaussian System, Link 0=g09
 Input=F6P.gau
 Output=F6P.log
 Initial command:
 /usr/common/usg/g09/c1/g09/l1.exe /scratch/scratchdirs/nmih/Gau-29737.inp -scrdir=/scratch/scratchdirs/nmih/
 Entering Link 1 = /usr/common/usg/g09/c1/g09/l1.exe PID=     29740.
  
 Copyright (c) 1988,1990,1992,1993,1995,1998,2003,2009,2011,
            Gaussian, Inc.  All Rights Reserved.
  
 This is part of the Gaussian(R) 09 program.  It is based on
 the Gaussian(R) 03 system (copyright 2003, Gaussian, Inc.),
 the Gaussian(R) 98 system (copyright 1998, Gaussian, Inc.),
 the Gaussian(R) 94 system (copyright 1995, Gaussian, Inc.),
 the Gaussian 92(TM) system (copyright 1992, Gaussian, Inc.),
 the Gaussian 90(TM) system (copyright 1990, Gaussian, Inc.),
 the Gaussian 88(TM) system (copyright 1988, Gaussian, Inc.),
 the Gaussian 86(TM) system (copyright 1986, Carnegie Mellon
 University), and the Gaussian 82(TM) system (copyright 1983,
 Carnegie Mellon University). Gaussian is a federally registered
 trademark of Gaussian, Inc.
  
 This software contains proprietary and confidential information,
 including trade secrets, belonging to Gaussian, Inc.
  
 This software is provided under written license and may be
 used, copied, transmitted, or stored only in accord with that
 written license.
  
 The following legend is applicable only to US Government
 contracts under FAR:
  
                    RESTRICTED RIGHTS LEGEND
  
 Use, reproduction and disclosure by the US Government is
 subject to restrictions as set forth in subparagraphs (a)
 and (c) of the Commercial Computer Software - Restricted
 Rights clause in FAR 52.227-19.
  
 Gaussian, Inc.
 340 Quinnipiac St., Bldg. 40, Wallingford CT 06492
  
  
 ---------------------------------------------------------------
 Warning -- This program may not be used in any manner that
 competes with the business of Gaussian, Inc. or will provide
 assistance to any competitor of Gaussian, Inc.  The licensee
 of this program is prohibited from giving any competitor of
 Gaussian, Inc. access to this program.  By using this program,
 the user acknowledges that Gaussian, Inc. is engaged in the
 business of creating and licensing software in the field of
 computational chemistry and represents and warrants to the
 licensee that it is not a competitor of Gaussian, Inc. and that
 it will not use this program in any manner prohibited above.
 ---------------------------------------------------------------
  

 Cite this work as:
 Gaussian 09, Revision C.01,
 M. J. Frisch, G. W. Trucks, H. B. Schlegel, G. E. Scuseria, 
 M. A. Robb, J. R. Cheeseman, G. Scalmani, V. Barone, B. Mennucci, 
 G. A. Petersson, H. Nakatsuji, M. Caricato, X. Li, H. P. Hratchian, 
 A. F. Izmaylov, J. Bloino, G. Zheng, J. L. Sonnenberg, M. Hada, 
 M. Ehara, K. Toyota, R. Fukuda, J. Hasegawa, M. Ishida, T. Nakajima, 
 Y. Honda, O. Kitao, H. Nakai, T. Vreven, J. A. Montgomery, Jr., 
 J. E. Peralta, F. Ogliaro, M. Bearpark, J. J. Heyd, E. Brothers, 
 K. N. Kudin, V. N. Staroverov, T. Keith, R. Kobayashi, J. Normand, 
 K. Raghavachari, A. Rendell, J. C. Burant, S. S. Iyengar, J. Tomasi, 
 M. Cossi, N. Rega, J. M. Millam, M. Klene, J. E. Knox, J. B. Cross, 
 V. Bakken, C. Adamo, J. Jaramillo, R. Gomperts, R. E. Stratmann, 
 O. Yazyev, A. J. Austin, R. Cammi, C. Pomelli, J. W. Ochterski, 
 R. L. Martin, K. Morokuma, V. G. Zakrzewski, G. A. Voth, 
 P. Salvador, J. J. Dannenberg, S. Dapprich, A. D. Daniels, 
 O. Farkas, J. B. Foresman, J. V. Ortiz, J. Cioslowski, 
 and D. J. Fox, Gaussian, Inc., Wallingford CT, 2010.
 
 ******************************************
 Gaussian 09:  AM64L-G09RevC.01 23-Sep-2011
                25-Aug-2015 
 ******************************************
 %chk=F6P.chk
 ----------------------------------------------
 #HF/6-31G* Test Pop=MK iop(6/33=2) iop(6/42=6)
 ----------------------------------------------
 1/38=1/1;
 2/12=2,17=6,18=5,40=1/2;
 3/5=1,6=6,7=1,11=9,16=1,25=1,30=1/1,2,3;
 4//1;
 5/5=2,38=5/2;
 6/7=2,8=2,9=2,10=2,15=8,20=1,28=1,33=2,42=6/1,2;
 99/5=1,9=1/99;
 -------------
 F6P_ideal.pdb
 -------------
 Charge = -2 Multiplicity = 1
 Symbolic Z-Matrix:
 C                     4.362     1.044    -0.786 
 C                     3.817    -0.095     0.037 
 C                     2.534    -0.773    -0.37 
 C                     1.349     0.132    -0.027 
 C                     0.041    -0.605    -0.324 
 C                    -1.144     0.299     0.019 
 O                     5.577     1.515    -0.201 
 O                     4.409    -0.465     1.023 
 O                     2.406    -2.011     0.332 
 O                     1.397     0.475     1.36 
 O                    -0.007    -0.949    -1.71 
 O                    -2.362    -0.428    -0.148 
 P                    -3.812     0.215     0.127 
 O                    -4.085     1.396    -0.933 
 O                    -4.942    -0.921    -0.034 
 O                    -3.856     0.764     1.5 
 H                     4.557     0.698    -1.801 
 H                     3.633     1.854    -0.812 
 H                     2.548    -0.962    -1.443 
 H                     1.399     1.04     -0.628 
 H                    -0.008    -1.513     0.277 
 H                    -1.059     0.633     1.053 
 H                    -1.144     1.165    -0.643 
 H                     5.985     2.25     -0.68 
 H                     2.387    -1.918     1.294 
 H                     1.357    -0.285     1.955 
 H                     0.033    -0.188    -2.306 
 
                          Input orientation:                          
 ---------------------------------------------------------------------
 Center     Atomic      Atomic             Coordinates (Angstroms)
 Number     Number       Type             X           Y           Z
 ---------------------------------------------------------------------
      1          6           0        4.362000    1.044000   -0.786000
      2          6           0        3.817000   -0.095000    0.037000
      3          6           0        2.534000   -0.773000   -0.370000
      4          6           0        1.349000    0.132000   -0.027000
      5          6           0        0.041000   -0.605000   -0.324000
      6          6           0       -1.144000    0.299000    0.019000
      7          8           0        5.577000    1.515000   -0.201000
      8          8           0        4.409000   -0.465000    1.023000
      9          8           0        2.406000   -2.011000    0.332000
     10          8           0        1.397000    0.475000    1.360000
     11          8           0       -0.007000   -0.949000   -1.710000
     12          8           0       -2.362000   -0.428000   -0.148000
     13         15           0       -3.812000    0.215000    0.127000
     14          8           0       -4.085000    1.396000   -0.933000
     15          8           0       -4.942000   -0.921000   -0.034000
     16          8           0       -3.856000    0.764000    1.500000
     17          1           0        4.557000    0.698000   -1.801000
     18          1           0        3.633000    1.854000   -0.812000
     19          1           0        2.548000   -0.962000   -1.443000
     20          1           0        1.399000    1.040000   -0.628000
     21          1           0       -0.008000   -1.513000    0.277000
     22          1           0       -1.059000    0.633000    1.053000
     23          1           0       -1.144000    1.165000   -0.643000
     24          1           0        5.985000    2.250000   -0.680000
     25          1           0        2.387000   -1.918000    1.294000
     26          1           0        1.357000   -0.285000    1.955000
     27          1           0        0.033000   -0.188000   -2.306000
 ---------------------------------------------------------------------
                    Distance matrix (angstroms):
                    1          2          3          4          5
     1  C    0.000000
     2  C    1.507208   0.000000
     3  C    2.610772   1.507124   0.000000
     4  C    3.238208   2.479244   1.530000   0.000000
     5  C    4.647977   3.827349   2.499078   1.530438   0.000000
     6  C    5.614186   4.976654   3.850739   2.499011   1.529408
     7  O    1.428388   2.397153   3.810952   4.451848   5.929319
     8  O    2.356220   1.208123   2.356043   3.289758   4.573121
     9  O    3.795904   2.397708   1.428927   2.416315   2.828497
    10  O    3.704093   2.816315   2.417266   1.429588   2.416814
    11  O    4.890193   4.290023   2.878065   2.416565   1.428858
    12  O    6.912742   6.190731   4.913158   3.754965   2.415929
    13  P    8.266504   7.635826   6.441651   5.163964   3.965023
    14  O    8.455609   8.099727   6.988039   5.652158   4.625879
    15  O    9.538928   8.798147   7.485010   6.378522   5.001424
    16  O    8.534619   7.858319   6.833108   5.461060   4.515279
    17  H    1.089939   2.134173   2.881689   3.709272   4.926824
    18  H    1.090054   2.133836   2.881717   2.966170   4.380330
    19  H    2.783214   2.133647   1.089608   2.153948   2.768512
    20  H    2.967212   2.752667   2.154474   1.090030   2.154671
    21  H    5.173502   4.086435   2.725431   2.154040   1.089984
    22  H    5.739171   5.033648   4.112349   2.686236   2.153781
    23  H    5.509186   5.163480   4.166300   2.767958   2.153807
    24  H    2.024797   3.273124   4.598264   5.138563   6.603703
    25  H    4.123162   2.635959   2.025223   2.650469   3.137771
    26  H    4.278942   3.125128   2.651245   2.025408   2.651056
    27  H    4.750628   4.451624   3.216414   2.651056   2.025408
                    6          7          8          9         10
     6  C    0.000000
     7  O    6.833659   0.000000
     8  O    5.694517   2.604381   0.000000
     9  O    4.246948   4.772002   2.622900   0.000000
    10  O    2.878531   4.581563   3.173218   2.873162   0.000000
    11  O    2.416550   6.287244   5.215803   3.334693   3.663863
    12  O    1.428265   8.173480   6.871612   5.046792   4.149645
    13  P    2.671506   9.484245   8.297593   6.607619   5.359251
    14  O    3.280121   9.690419   8.912760   7.439150   6.013187
    15  O    3.989488  10.798673   9.421591   7.437416   6.638898
    16  O    3.124825   9.614515   8.369480   6.948201   5.262806
    17  H    5.997750   2.065887   3.057687   4.063886   4.475182
    18  H    5.091985   2.065763   3.057313   4.213370   3.408654
    19  H    4.166345   4.105233   3.129135   2.066686   3.353592
    20  H    2.726635   4.226540   3.748456   3.353245   2.066730
    21  H    2.154160   6.370988   4.600512   2.465446   2.664406
    22  H    1.089925   6.810796   5.577233   4.417782   2.480151
    23  H    1.090046   6.744606   6.022314   4.862109   3.308291
    24  H    7.424126   0.967538   3.571444   5.655927   5.325596
    25  H    4.359894   4.919005   2.504623   0.966672   2.590541
    26  H    3.216233   5.069195   3.196205   2.591063   0.966036
    27  H    2.651061   6.169860   5.505302   3.989173   3.967319
                   11         12         13         14         15
    11  O    0.000000
    12  O    2.873554   0.000000
    13  P    4.382635   1.609837   0.000000
    14  O    4.767897   2.629055   1.610245   0.000000
    15  O    5.211908   2.629153   1.610378   2.628905   0.000000
    16  O    5.296534   2.523649   1.479346   2.524154   2.524238
    17  H    4.852936   7.202281   8.601781   8.713483   9.796655
    18  H    4.681112   6.448910   7.680890   7.732524   9.046355
    19  H    2.568946   5.105906   6.655812   7.058113   7.621487
    20  H    2.665273   4.065777   5.329650   5.504000   6.663831
    21  H    2.065494   2.626626   4.180777   5.152505   4.979110
    22  H    3.353147   2.065413   2.934486   3.699059   4.321363
    23  H    2.626833   2.065478   2.934898   2.964278   4.375738
    24  H    6.870121   8.782205  10.038610  10.109314  11.396135
    25  H    3.961592   5.181936   6.658767   7.604532   7.514774
    26  H    3.966562   4.274812   5.505465   6.386053   6.636115
    27  H    0.967438   3.232737   4.567923   4.620834   5.518143
                   16         17         18         19         20
    16  O    0.000000
    17  H    9.037673   0.000000
    18  H    7.913189   1.779953   0.000000
    19  H    7.256138   2.630560   3.083057   0.000000
    20  H    5.676230   3.386127   2.384787   2.447944   0.000000
    21  H    4.635468   5.481408   5.077351   3.129718   3.052291
    22  H    2.835521   6.299920   5.194606   4.667386   3.005524
    23  H    3.479683   5.836133   4.829390   4.335319   2.546114
    24  H   10.188517   2.388416   2.388754   4.765719   4.743227
    25  H    6.797839   4.596888   4.496191   2.903623   3.663331
    26  H    5.336927   5.031285   4.172743   3.663770   2.903322
    27  H    5.524153   4.637521   4.400205   2.769309   2.487895
                   21         22         23         24         25
    21  H    0.000000
    22  H    2.512388   0.000000
    23  H    3.050997   1.779513   0.000000
    24  H    7.140873   7.432087   7.211188   0.000000
    25  H    2.633313   4.294252   5.071964   5.849317   0.000000
    26  H    2.487347   2.737405   3.886786   5.898121   2.040713
    27  H    2.903308   3.626208   2.445712   6.634307   4.636186
                   26         27
    26  H    0.000000
    27  H    4.463015   0.000000
 Stoichiometry    C6H11O9P(2-)
 Framework group  C1[X(C6H11O9P)]
 Deg. of freedom    75
 Full point group                 C1      NOp   1
 Largest Abelian subgroup         C1      NOp   1
 Largest concise Abelian subgroup C1      NOp   1
                         Standard orientation:                         
 ---------------------------------------------------------------------
 Center     Atomic      Atomic             Coordinates (Angstroms)
 Number     Number       Type             X           Y           Z
 ---------------------------------------------------------------------
      1          6           0        4.250106   -1.070927    0.658787
      2          6           0        3.692329    0.130501   -0.060332
      3          6           0        2.408230    0.762792    0.411601
      4          6           0        1.226268   -0.117474    0.000508
      5          6           0       -0.083978    0.582819    0.368047
      6          6           0       -1.265946   -0.296450   -0.042961
      7          8           0        5.463676   -1.482241    0.027632
      8          8           0        4.274966    0.587188   -1.015074
      9          8           0        2.267711    2.055295   -0.181292
     10          8           0        1.266339   -0.340564   -1.410998
     11          8           0       -0.124062    0.806990    1.778641
     12          8           0       -2.487073    0.405567    0.193602
     13         15           0       -3.935113   -0.221217   -0.125610
     14          8           0       -4.193339   -1.490129    0.831506
     15          8           0       -5.070754    0.889395    0.139301
     16          8           0       -3.985695   -0.651354   -1.540138
     17          1           0        4.450325   -0.811501    1.698295
     18          1           0        3.526210   -1.885003    0.620409
     19          1           0        2.428823    0.859646    1.496700
     20          1           0        1.286074   -1.073088    0.521460
     21          1           0       -0.142783    1.538439   -0.152912
     22          1           0       -1.186387   -0.540445   -1.102241
     23          1           0       -1.255952   -1.215754    0.542686
     24          1           0        5.879543   -2.252709    0.439413
     25          1           0        2.242339    2.044585   -1.147571
     26          1           0        1.217469    0.467147   -1.938672
     27          1           0       -0.075179   -0.001802    2.307226
 ---------------------------------------------------------------------
 Rotational constants (GHZ):      1.2561417      0.1604807      0.1579475
 Standard basis: 6-31G(d) (6D, 7F)
 There are   266 symmetry adapted basis functions of A   symmetry.
 Integral buffers will be    131072 words long.
 Raffenetti 1 integral format.
 Two-electron integral symmetry is turned on.
   266 basis functions,   516 primitive gaussians,   266 cartesian basis functions
    68 alpha electrons       68 beta electrons
       nuclear repulsion energy      1314.0904492765 Hartrees.
 NAtoms=   27 NActive=   27 NUniq=   27 SFac= 1.00D+00 NAtFMM=   60 NAOKFM=F Big=F
 One-electron integrals computed using PRISM.
 NBasis=   266 RedAO= T  NBF=   266
 NBsUse=   266 1.00D-06 NBFU=   266
 Harris functional with IExCor=  205 diagonalized for initial guess.
 ExpMin= 9.98D-02 ExpMax= 1.94D+04 ExpMxC= 2.91D+03 IAcc=2 IRadAn=         4 AccDes= 0.00D+00
 HarFok:  IExCor=  205 AccDes= 0.00D+00 IRadAn=         4 IDoV= 1
 ScaDFX=  1.000000  1.000000  1.000000  1.000000
 FoFCou: FMM=F IPFlag=           0 FMFlag=      100000 FMFlg1=           0
         NFxFlg=           0 DoJE=T BraDBF=F KetDBF=T FulRan=T
         Omega=  0.000000  0.000000  1.000000  0.000000  0.000000 ICntrl=     500 IOpCl=  0
         NMat0=    1 NMatS0=    1 NMatT0=    0 NMatD0=    1 NMtDS0=    0 NMtDT0=    0
         I1Cent=           4 NGrid=           0.
 Petite list used in FoFCou.
 Initial guess orbital symmetries:
       Occupied  (A) (A) (A) (A) (A) (A) (A) (A) (A) (A) (A) (A)
                 (A) (A) (A) (A) (A) (A) (A) (A) (A) (A) (A) (A)
                 (A) (A) (A) (A) (A) (A) (A) (A) (A) (A) (A) (A)
                 (A) (A) (A) (A) (A) (A) (A) (A) (A) (A) (A) (A)
                 (A) (A) (A) (A) (A) (A) (A) (A) (A) (A) (A) (A)
                 (A) (A) (A) (A) (A) (A) (A) (A)
       Virtual   (A) (A) (A) (A) (A) (A) (A) (A) (A) (A) (A) (A)
                 (A) (A) (A) (A) (A) (A) (A) (A) (A) (A) (A) (A)
                 (A) (A) (A) (A) (A) (A) (A) (A) (A) (A) (A) (A)
                 (A) (A) (A) (A) (A) (A) (A) (A) (A) (A) (A) (A)
                 (A) (A) (A) (A) (A) (A) (A) (A) (A) (A) (A) (A)
                 (A) (A) (A) (A) (A) (A) (A) (A) (A) (A) (A) (A)
                 (A) (A) (A) (A) (A) (A) (A) (A) (A) (A) (A) (A)
                 (A) (A) (A) (A) (A) (A) (A) (A) (A) (A) (A) (A)
                 (A) (A) (A) (A) (A) (A) (A) (A) (A) (A) (A) (A)
                 (A) (A) (A) (A) (A) (A) (A) (A) (A) (A) (A) (A)
                 (A) (A) (A) (A) (A) (A) (A) (A) (A) (A) (A) (A)
                 (A) (A) (A) (A) (A) (A) (A) (A) (A) (A) (A) (A)
                 (A) (A) (A) (A) (A) (A) (A) (A) (A) (A) (A) (A)
                 (A) (A) (A) (A) (A) (A) (A) (A) (A) (A) (A) (A)
                 (A) (A) (A) (A) (A) (A) (A) (A) (A) (A) (A) (A)
                 (A) (A) (A) (A) (A) (A) (A) (A) (A) (A) (A) (A)
                 (A) (A) (A) (A) (A) (A)
 The electronic state of the initial guess is 1-A.
 Requested convergence on RMS density matrix=1.00D-08 within 128 cycles.
 Requested convergence on MAX density matrix=1.00D-06.
 Requested convergence on             energy=1.00D-06.
 No special actions if energy rises.
 Integral accuracy reduced to 1.0D-05 until final iterations.
 Initial convergence to 1.0D-05 achieved.  Increase integral accuracy.
 SCF Done:  E(RHF) =  -1247.94599328     A.U. after   16 cycles
             Convg  =    0.5971D-08             -V/T =  2.0021

 **********************************************************************

            Population analysis using the SCF density.

 **********************************************************************

 Orbital symmetries:
 BldTbl:  Degeneracy threshold= 1.00D-02
       Occupied  (A) (A) (A) (A) (A) (A) (A) (A) (A) (A) (A) (A)
                 (A) (A) (A) (A) (A) (A) (A) (A) (A) (A) (A) (A)
                 (A) (A) (A) (A) (A) (A) (A) (A) (A) (A) (A) (A)
                 (A) (A) (A) (A) (A) (A) (A) (A) (A) (A) (A) (A)
                 (A) (A) (A) (A) (A) (A) (A) (A) (A) (A) (A) (A)
                 (A) (A) (A) (A) (A) (A) (A) (A)
       Virtual   (A) (A) (A) (A) (A) (A) (A) (A) (A) (A) (A) (A)
                 (A) (A) (A) (A) (A) (A) (A) (A) (A) (A) (A) (A)
                 (A) (A) (A) (A) (A) (A) (A) (A) (A) (A) (A) (A)
                 (A) (A) (A) (A) (A) (A) (A) (A) (A) (A) (A) (A)
                 (A) (A) (A) (A) (A) (A) (A) (A) (A) (A) (A) (A)
                 (A) (A) (A) (A) (A) (A) (A) (A) (A) (A) (A) (A)
                 (A) (A) (A) (A) (A) (A) (A) (A) (A) (A) (A) (A)
                 (A) (A) (A) (A) (A) (A) (A) (A) (A) (A) (A) (A)
                 (A) (A) (A) (A) (A) (A) (A) (A) (A) (A) (A) (A)
                 (A) (A) (A) (A) (A) (A) (A) (A) (A) (A) (A) (A)
                 (A) (A) (A) (A) (A) (A) (A) (A) (A) (A) (A) (A)
                 (A) (A) (A) (A) (A) (A) (A) (A) (A) (A) (A) (A)
                 (A) (A) (A) (A) (A) (A) (A) (A) (A) (A) (A) (A)
                 (A) (A) (A) (A) (A) (A) (A) (A) (A) (A) (A) (A)
                 (A) (A) (A) (A) (A) (A) (A) (A) (A) (A) (A) (A)
                 (A) (A) (A) (A) (A) (A) (A) (A) (A) (A) (A) (A)
                 (A) (A) (A) (A) (A) (A)
 The electronic state is 1-A.
 Alpha  occ. eigenvalues --  -79.63930 -20.45045 -20.42269 -20.42126 -20.41254
 Alpha  occ. eigenvalues --  -20.36761 -20.24429 -20.06830 -20.05641 -20.05614
 Alpha  occ. eigenvalues --  -11.19550 -11.17504 -11.14899 -11.13106 -11.08099
 Alpha  occ. eigenvalues --  -11.02289  -7.15898  -5.05904  -5.05665  -5.05555
 Alpha  occ. eigenvalues --   -1.27031  -1.23585  -1.21886  -1.19556  -1.16103
 Alpha  occ. eigenvalues --   -1.05653  -0.91366  -0.88198  -0.85269  -0.79575
 Alpha  occ. eigenvalues --   -0.78816  -0.76726  -0.69765  -0.63422  -0.61225
 Alpha  occ. eigenvalues --   -0.59428  -0.55241  -0.54078  -0.53274  -0.51801
 Alpha  occ. eigenvalues --   -0.50291  -0.48088  -0.45385  -0.42385  -0.40812
 Alpha  occ. eigenvalues --   -0.39784  -0.39621  -0.38949  -0.36627  -0.36000
 Alpha  occ. eigenvalues --   -0.34707  -0.33756  -0.32981  -0.30409  -0.29027
 Alpha  occ. eigenvalues --   -0.27596  -0.24434  -0.23023  -0.18991  -0.18392
 Alpha  occ. eigenvalues --   -0.11982  -0.10766  -0.05653  -0.02375  -0.02051
 Alpha  occ. eigenvalues --    0.00978   0.02196   0.04660
 Alpha virt. eigenvalues --    0.29354   0.32114   0.34166   0.36581   0.40517
 Alpha virt. eigenvalues --    0.41832   0.43906   0.46116   0.47642   0.49632
 Alpha virt. eigenvalues --    0.50296   0.54953   0.55459   0.55982   0.57824
 Alpha virt. eigenvalues --    0.58454   0.59916   0.62524   0.65989   0.66094
 Alpha virt. eigenvalues --    0.68611   0.69332   0.71922   0.74342   0.74878
 Alpha virt. eigenvalues --    0.77164   0.79802   0.89161   0.90367   0.91328
 Alpha virt. eigenvalues --    0.93036   0.94749   0.97435   0.99741   1.00209
 Alpha virt. eigenvalues --    1.01007   1.02726   1.03688   1.04980   1.05217
 Alpha virt. eigenvalues --    1.06114   1.07978   1.09805   1.10836   1.12389
 Alpha virt. eigenvalues --    1.17368   1.18820   1.21167   1.21616   1.23610
 Alpha virt. eigenvalues --    1.24396   1.25198   1.26641   1.27717   1.28836
 Alpha virt. eigenvalues --    1.29810   1.31949   1.33693   1.33994   1.35634
 Alpha virt. eigenvalues --    1.35821   1.37302   1.37769   1.38975   1.40811
 Alpha virt. eigenvalues --    1.41871   1.43193   1.44370   1.45693   1.46445
 Alpha virt. eigenvalues --    1.47758   1.50165   1.51389   1.52864   1.55491
 Alpha virt. eigenvalues --    1.56070   1.57423   1.59320   1.60908   1.63153
 Alpha virt. eigenvalues --    1.64826   1.66214   1.68203   1.71260   1.71781
 Alpha virt. eigenvalues --    1.74997   1.76064   1.77556   1.78011   1.78636
 Alpha virt. eigenvalues --    1.79766   1.80858   1.82094   1.84385   1.85046
 Alpha virt. eigenvalues --    1.87014   1.88949   1.92454   1.94103   1.96354
 Alpha virt. eigenvalues --    1.97230   2.00750   2.01280   2.02167   2.05002
 Alpha virt. eigenvalues --    2.05480   2.05983   2.09001   2.11698   2.14109
 Alpha virt. eigenvalues --    2.15169   2.16076   2.18858   2.19730   2.21596
 Alpha virt. eigenvalues --    2.23638   2.24799   2.26472   2.29221   2.30752
 Alpha virt. eigenvalues --    2.32414   2.34164   2.38294   2.38789   2.42832
 Alpha virt. eigenvalues --    2.43797   2.44332   2.46068   2.47613   2.48239
 Alpha virt. eigenvalues --    2.53055   2.54191   2.55287   2.56801   2.57743
 Alpha virt. eigenvalues --    2.58543   2.59410   2.59990   2.61150   2.61209
 Alpha virt. eigenvalues --    2.61414   2.63849   2.65228   2.66326   2.67675
 Alpha virt. eigenvalues --    2.71252   2.72111   2.74535   2.75770   2.77395
 Alpha virt. eigenvalues --    2.77524   2.82968   2.84344   2.86724   2.89094
 Alpha virt. eigenvalues --    2.93245   2.94159   2.94736   2.99488   3.00685
 Alpha virt. eigenvalues --    3.02501   3.03266   3.05396   3.06168   3.10223
 Alpha virt. eigenvalues --    3.12509   3.15990   3.18391   3.24206   3.27348
 Alpha virt. eigenvalues --    3.28213   3.35194   3.38841   3.41694   3.46175
 Alpha virt. eigenvalues --    3.49418   3.51747   3.52278   3.55233   3.57693
 Alpha virt. eigenvalues --    3.60592   3.64491   4.28928   4.33873   4.36682
 Alpha virt. eigenvalues --    4.40312   4.49584   4.53777   4.57470   4.67675
 Alpha virt. eigenvalues --    4.70405   4.79886   4.80918   4.95543   5.02533
 Alpha virt. eigenvalues --    5.07503   5.12545   5.28452
          Condensed to atoms (all electrons):
              1          2          3          4          5          6
     1  C    4.973554   0.289422  -0.104159   0.005207  -0.000234   0.000002
     2  C    0.289422   4.570207   0.315173  -0.064225   0.003757   0.000007
     3  C   -0.104159   0.315173   5.033511   0.316371  -0.061630   0.005019
     4  C    0.005207  -0.064225   0.316371   5.044023   0.318841  -0.068229
     5  C   -0.000234   0.003757  -0.061630   0.318841   4.958853   0.349157
     6  C    0.000002   0.000007   0.005019  -0.068229   0.349157   4.733726
     7  O    0.210981  -0.036562   0.001088  -0.000030   0.000000   0.000000
     8  O   -0.077580   0.572834  -0.065425  -0.001832  -0.000110   0.000000
     9  O    0.002540  -0.036319   0.224271  -0.048406  -0.009184   0.000078
    10  O   -0.000152   0.002763  -0.047842   0.179265  -0.038183  -0.004306
    11  O   -0.000008   0.000444   0.001873  -0.047153   0.166350  -0.044274
    12  O    0.000000   0.000000  -0.000046   0.002777  -0.046531   0.247857
    13  P    0.000000   0.000000  -0.000004   0.000285  -0.000014  -0.017174
    14  O    0.000000   0.000000   0.000000   0.000003  -0.000001  -0.004964
    15  O    0.000000   0.000000   0.000000   0.000000  -0.000015   0.000416
    16  O    0.000000   0.000000   0.000000   0.000002   0.000117  -0.000092
    17  H    0.387597  -0.043112   0.004741   0.000082  -0.000013   0.000000
    18  H    0.392931  -0.037910   0.003075  -0.000659   0.000162  -0.000005
    19  H    0.003804  -0.048988   0.387483  -0.038222  -0.006219   0.000105
    20  H   -0.000901  -0.004546  -0.054602   0.376524  -0.032949  -0.003427
    21  H   -0.000010  -0.000209  -0.011607  -0.043054   0.388754  -0.036094
    22  H    0.000000   0.000003  -0.000184   0.002086  -0.054607   0.388114
    23  H   -0.000001  -0.000002  -0.000273  -0.003502  -0.046545   0.364149
    24  H   -0.020141   0.005136  -0.000086   0.000003   0.000000   0.000000
    25  H    0.000307  -0.006499  -0.023608  -0.002950  -0.000286  -0.000060
    26  H   -0.000039  -0.001519  -0.003048  -0.027099  -0.001473   0.000163
    27  H    0.000003  -0.000092  -0.001202  -0.003241  -0.024603  -0.002009
              7          8          9         10         11         12
     1  C    0.210981  -0.077580   0.002540  -0.000152  -0.000008   0.000000
     2  C   -0.036562   0.572834  -0.036319   0.002763   0.000444   0.000000
     3  C    0.001088  -0.065425   0.224271  -0.047842   0.001873  -0.000046
     4  C   -0.000030  -0.001832  -0.048406   0.179265  -0.047153   0.002777
     5  C    0.000000  -0.000110  -0.009184  -0.038183   0.166350  -0.046531
     6  C    0.000000   0.000000   0.000078  -0.004306  -0.044274   0.247857
     7  O    8.378826   0.000844  -0.000008  -0.000002   0.000000   0.000000
     8  O    0.000844   8.105096  -0.006633  -0.000699   0.000000   0.000000
     9  O   -0.000008  -0.006633   8.389452  -0.003650   0.000271   0.000000
    10  O   -0.000002  -0.000699  -0.003650   8.434722   0.001724   0.000028
    11  O    0.000000   0.000000   0.000271   0.001724   8.449438   0.002204
    12  O    0.000000   0.000000   0.000000   0.000028   0.002204   8.529611
    13  P    0.000000   0.000000   0.000000  -0.000001   0.000119   0.149234
    14  O    0.000000   0.000000   0.000000   0.000000   0.000000  -0.029360
    15  O    0.000000   0.000000   0.000000   0.000000   0.000000  -0.025747
    16  O    0.000000   0.000000   0.000000   0.000000  -0.000001  -0.034769
    17  H   -0.037547   0.000827  -0.000036   0.000005  -0.000001   0.000000
    18  H   -0.033846   0.000673  -0.000018   0.000437  -0.000005   0.000000
    19  H   -0.000034   0.001702  -0.024404   0.003149   0.010432  -0.000002
    20  H    0.000004   0.000215   0.002979  -0.026881   0.001175  -0.000033
    21  H    0.000000   0.000001   0.007519   0.001758  -0.028623   0.003614
    22  H    0.000000   0.000000  -0.000007   0.003039   0.003386  -0.036757
    23  H    0.000000   0.000000  -0.000006   0.000404  -0.003544  -0.038846
    24  H    0.255622   0.000091   0.000000   0.000000   0.000000   0.000000
    25  H   -0.000001   0.007939   0.254220   0.005532  -0.000054   0.000000
    26  H    0.000001   0.000657   0.005247   0.256395   0.000030  -0.000030
    27  H    0.000000   0.000000  -0.000008   0.000025   0.253959   0.000210
             13         14         15         16         17         18
     1  C    0.000000   0.000000   0.000000   0.000000   0.387597   0.392931
     2  C    0.000000   0.000000   0.000000   0.000000  -0.043112  -0.037910
     3  C   -0.000004   0.000000   0.000000   0.000000   0.004741   0.003075
     4  C    0.000285   0.000003   0.000000   0.000002   0.000082  -0.000659
     5  C   -0.000014  -0.000001  -0.000015   0.000117  -0.000013   0.000162
     6  C   -0.017174  -0.004964   0.000416  -0.000092   0.000000  -0.000005
     7  O    0.000000   0.000000   0.000000   0.000000  -0.037547  -0.033846
     8  O    0.000000   0.000000   0.000000   0.000000   0.000827   0.000673
     9  O    0.000000   0.000000   0.000000   0.000000  -0.000036  -0.000018
    10  O   -0.000001   0.000000   0.000000   0.000000   0.000005   0.000437
    11  O    0.000119   0.000000   0.000000  -0.000001  -0.000001  -0.000005
    12  O    0.149234  -0.029360  -0.025747  -0.034769   0.000000   0.000000
    13  P   11.939628   0.489244   0.496497   0.535637   0.000000   0.000000
    14  O    0.489244   8.640674  -0.043885  -0.052201   0.000000   0.000000
    15  O    0.496497  -0.043885   8.605507  -0.052431   0.000000   0.000000
    16  O    0.535637  -0.052201  -0.052431   8.505705   0.000000   0.000000
    17  H    0.000000   0.000000   0.000000   0.000000   0.568222  -0.036620
    18  H    0.000000   0.000000   0.000000   0.000000  -0.036620   0.525865
    19  H    0.000000   0.000000   0.000000   0.000000   0.000521   0.000059
    20  H   -0.000044  -0.000001   0.000000   0.000000   0.000065   0.000642
    21  H   -0.000369  -0.000001  -0.000007   0.000011   0.000000  -0.000001
    22  H    0.000460  -0.000439  -0.000029   0.009225   0.000000   0.000001
    23  H    0.002251   0.008832  -0.000045  -0.000816   0.000000  -0.000005
    24  H    0.000000   0.000000   0.000000   0.000000  -0.002719  -0.002632
    25  H    0.000000   0.000000   0.000000   0.000000  -0.000008  -0.000004
    26  H   -0.000006   0.000000   0.000000   0.000000   0.000001  -0.000017
    27  H   -0.000020   0.000000   0.000000   0.000000   0.000001  -0.000006
             19         20         21         22         23         24
     1  C    0.003804  -0.000901  -0.000010   0.000000  -0.000001  -0.020141
     2  C   -0.048988  -0.004546  -0.000209   0.000003  -0.000002   0.005136
     3  C    0.387483  -0.054602  -0.011607  -0.000184  -0.000273  -0.000086
     4  C   -0.038222   0.376524  -0.043054   0.002086  -0.003502   0.000003
     5  C   -0.006219  -0.032949   0.388754  -0.054607  -0.046545   0.000000
     6  C    0.000105  -0.003427  -0.036094   0.388114   0.364149   0.000000
     7  O   -0.000034   0.000004   0.000000   0.000000   0.000000   0.255622
     8  O    0.001702   0.000215   0.000001   0.000000   0.000000   0.000091
     9  O   -0.024404   0.002979   0.007519  -0.000007  -0.000006   0.000000
    10  O    0.003149  -0.026881   0.001758   0.003039   0.000404   0.000000
    11  O    0.010432   0.001175  -0.028623   0.003386  -0.003544   0.000000
    12  O   -0.000002  -0.000033   0.003614  -0.036757  -0.038846   0.000000
    13  P    0.000000  -0.000044  -0.000369   0.000460   0.002251   0.000000
    14  O    0.000000  -0.000001  -0.000001  -0.000439   0.008832   0.000000
    15  O    0.000000   0.000000  -0.000007  -0.000029  -0.000045   0.000000
    16  O    0.000000   0.000000   0.000011   0.009225  -0.000816   0.000000
    17  H    0.000521   0.000065   0.000000   0.000000   0.000000  -0.002719
    18  H    0.000059   0.000642  -0.000001   0.000001  -0.000005  -0.002632
    19  H    0.498362   0.003768   0.000207  -0.000021  -0.000016   0.000003
    20  H    0.003768   0.557763   0.004766   0.000018   0.004713  -0.000002
    21  H    0.000207   0.004766   0.514261  -0.002087   0.005158   0.000000
    22  H   -0.000021   0.000018  -0.002087   0.564108  -0.039849   0.000000
    23  H   -0.000016   0.004713   0.005158  -0.039849   0.627618   0.000000
    24  H    0.000003  -0.000002   0.000000   0.000000   0.000000   0.332919
    25  H    0.004367   0.000156   0.000153  -0.000005   0.000001   0.000000
    26  H    0.000161   0.004799   0.002468   0.000524  -0.000035   0.000000
    27  H    0.000213   0.003816   0.004474   0.000026   0.003565   0.000000
             25         26         27
     1  C    0.000307  -0.000039   0.000003
     2  C   -0.006499  -0.001519  -0.000092
     3  C   -0.023608  -0.003048  -0.001202
     4  C   -0.002950  -0.027099  -0.003241
     5  C   -0.000286  -0.001473  -0.024603
     6  C   -0.000060   0.000163  -0.002009
     7  O   -0.000001   0.000001   0.000000
     8  O    0.007939   0.000657   0.000000
     9  O    0.254220   0.005247  -0.000008
    10  O    0.005532   0.256395   0.000025
    11  O   -0.000054   0.000030   0.253959
    12  O    0.000000  -0.000030   0.000210
    13  P    0.000000  -0.000006  -0.000020
    14  O    0.000000   0.000000   0.000000
    15  O    0.000000   0.000000   0.000000
    16  O    0.000000   0.000000   0.000000
    17  H   -0.000008   0.000001   0.000001
    18  H   -0.000004  -0.000017  -0.000006
    19  H    0.004367   0.000161   0.000213
    20  H    0.000156   0.004799   0.003816
    21  H    0.000153   0.002468   0.004474
    22  H   -0.000005   0.000524   0.000026
    23  H    0.000001  -0.000035   0.003565
    24  H    0.000000   0.000000   0.000000
    25  H    0.312399   0.005516   0.000001
    26  H    0.005516   0.318265   0.000009
    27  H    0.000001   0.000009   0.339749
 Mulliken atomic charges:
              1
     1  C   -0.063123
     2  C    0.520237
     3  C    0.081110
     4  C    0.103132
     5  C    0.136607
     6  C    0.091840
     7  O   -0.739336
     8  O   -0.538599
     9  O   -0.757898
    10  O   -0.767528
    11  O   -0.767743
    12  O   -0.723413
    13  P    1.404281
    14  O   -1.007900
    15  O   -0.980261
    16  O   -0.910387
    17  H    0.157995
    18  H    0.187882
    19  H    0.203569
    20  H    0.161982
    21  H    0.188916
    22  H    0.162993
    23  H    0.116794
    24  H    0.431806
    25  H    0.442884
    26  H    0.439031
    27  H    0.425128
 Sum of Mulliken atomic charges =  -2.00000
 Mulliken charges with hydrogens summed into heavy atoms:
              1
     1  C    0.282755
     2  C    0.520237
     3  C    0.284679
     4  C    0.265115
     5  C    0.325523
     6  C    0.371627
     7  O   -0.307530
     8  O   -0.538599
     9  O   -0.315013
    10  O   -0.328497
    11  O   -0.342615
    12  O   -0.723413
    13  P    1.404281
    14  O   -1.007900
    15  O   -0.980261
    16  O   -0.910387
 Sum of Mulliken charges with hydrogens summed into heavy atoms =  -2.00000
 DipInt: DoE/N= T F RetVal/Mat= T F Init=T NMatP=  1 IDeriv=0 Min/MaxMlt=  0  4
 Entering OneElI...
 OneElI was handed    33370757 working-precision words.
 Multipole integrals L=0 to 4 MinM= 0 MaxM= 0.
 Requested accuracy = 0.1000D-12
 PrsmSu:  NPrtUS=   1 ThrOK=F IAlg=1 NPAlg=1 LenDen=           0.
 Prism:   IPart=     0 DynPar=F LinDyn=F Incr=          29.
 PRISM was handed    33089794 working-precision words and  2988 shell-pairs
 IPart=  0 NShTot=        2988 NBatch=          71 AvBLen=        42.1
 PrSmSu:  NxtVal=             30.
 Electronic moments (au):
       -136.00000000         14.96514201         -0.14824037          1.32940261
      -5668.14013510       -525.63755425       -430.82310872        -16.96532682
         10.49608501         -8.40182282        637.30815525       -105.35380621
         -6.05541108       -897.01102986       3450.91783410        795.16222897
        148.93279853         19.11178222       -144.45401800        359.78302382
    -398693.86798782      -5645.08298623      -4241.21039582      23310.83297479
      -1358.53010218       -653.45043964        563.98318422       -859.55252719
       -646.44800482     -25611.09965421     -13311.19262930      -1284.96646894
       3247.90109674        517.29247198      -1165.03813803
 Electronic spatial extent (au):  <R**2>=           6624.6008
 DipInt: DoE/N= F T RetVal/Mat= T F Init=T NMatP=  1 IDeriv=0 Min/MaxMlt=  0  4
 Nuclear    moments (au):
        134.00000000          0.00000000          0.00000000          0.00000000
       5434.69685376        437.94671710        347.53215941          0.00000000
          0.00000000          0.00000000        467.15457515         91.97982425
         20.23826120       1023.61317358      -3489.61735602       -671.81947132
        -57.00898385          0.19345697        127.89957420       -390.41489847
     367687.73941621       3936.77932615       2931.81343809     -24354.12428497
       2428.13022831        190.47669549       -627.28460352        702.43182020
        535.34106258      21792.98866869       9388.80264712        765.83195946
      -3388.17213467       -404.47193289       1066.80095946
 Total      moments (au):
         -2.00000000         14.96514201         -0.14824037          1.32940261
       -233.44328134        -87.69083715        -83.29094931        -16.96532682
         10.49608501         -8.40182282       1104.46273039        -13.37398196
         14.18285012        126.60214372        -38.69952193        123.34275766
         91.92381468         19.30523919        -16.55444381        -30.63187465
     -31006.12857161      -1708.30366008      -1309.39695773      -1043.29131019
       1069.60012612       -462.97374415        -63.30141930       -157.12070699
       -111.10694223      -3818.11098552      -3922.38998217       -519.13450948
       -140.27103793        112.82053908        -98.23717857
 Traceless Quadrup. (au):
        -98.63492541         47.11751878         51.51740663        -16.96532682
         10.49608501         -8.40182282
 Charge=             -2.0000 electrons
 Dipole moment (field-independent basis, Debye):
    X=             38.0376    Y=             -0.3768    Z=              3.3790  Tot=             38.1892
 Quadrupole moment (field-independent basis, Debye-Ang):
   XX=           -313.9892   YY=           -117.9472   ZZ=           -112.0292
   XY=            -22.8189   XZ=             14.1176   YZ=            -11.3007
 Traceless Quadrupole moment (field-independent basis, Debye-Ang):
   XX=           -132.6673   YY=             63.3747   ZZ=             69.2927
   XY=            -22.8189   XZ=             14.1176   YZ=            -11.3007
 Octapole moment (field-independent basis, Debye-Ang**2):
  XXX=            786.1140  YYY=             -9.5191  ZZZ=             10.0948  XYY=             90.1105
  XXY=            -27.5448  XXZ=             87.7906  XZZ=             65.4278  YZZ=             13.7407
  YYZ=            -11.7828  XYZ=            -21.8026
 Hexadecapole moment (field-independent basis, Debye-Ang**3):
 XXXX=         -11678.3940 YYYY=           -643.4290 ZZZZ=           -493.1816 XXXY=           -392.9535
 XXXZ=            402.8627 YYYX=           -174.3781 YYYZ=            -23.8423 ZZZX=            -59.1792
 ZZZY=            -41.8482 XXYY=          -1438.0836 XXZZ=          -1477.3601 YYZZ=           -195.5309
 XXYZ=            -52.8328 YYXZ=             42.4936 ZZXY=            -37.0008
 N-N= 1.314090449277D+03 E-N=-5.618956639958D+03  KE= 1.245296164841D+03
 Entering OneElI...
 OneElI was handed    33228304 working-precision words.
 Calculate electrostatic properties
    NBasis =   266  MinDer = 0  MaxDer = 0
    NGrid  =    27  NMatD  =   1
 Requested accuracy = 0.1000D-12
 PrsmSu:  NPrtUS=   1 ThrOK=F IAlg=1 NPAlg=1 LenDen=           0.
 Prism:   IPart=     0 DynPar=F LinDyn=F Incr=         512.
 PRISM was handed    32971463 working-precision words and  2703 shell-pairs
 IPart=  0 NShTot=       72981 NBatch=        2703 AvBLen=        27.0
 PrSmSu:  NxtVal=            513.
 --------------------------------------------------------
       Center         ----      EFG at Nuclei      ----
                      3XX-RR        3YY-RR        3ZZ-RR
 --------------------------------------------------------
     1   Atom       -0.209815      0.144167      0.065647
     2   Atom        0.091165     -0.037035     -0.054130
     3   Atom        0.143724     -0.241447      0.097723
     4   Atom        0.199743      0.165023     -0.364766
     5   Atom        0.159859      0.211914     -0.371772
     6   Atom       -0.219376      0.007244      0.212132
     7   Atom       -0.646510     -0.060625      0.707135
     8   Atom        0.490926      0.435293     -0.926219
     9   Atom        1.892299     -0.610385     -1.281914
    10   Atom        1.883194     -0.305719     -1.577475
    11   Atom        1.854480     -0.301982     -1.552498
    12   Atom       -1.701792      0.338363      1.363429
    13   Atom       -0.609004      0.099351      0.509653
    14   Atom        0.362385     -0.569025      0.206640
    15   Atom       -0.764194     -0.008285      0.772479
    16   Atom        0.277627      0.379185     -0.656812
    17   Atom        0.130147      0.128060     -0.258207
    18   Atom       -0.054467     -0.102930      0.157397
    19   Atom        0.154715      0.133830     -0.288545
    20   Atom        0.149303     -0.191739      0.042435
    21   Atom        0.155808     -0.189719      0.033912
    22   Atom        0.142534      0.123899     -0.266434
    23   Atom        0.144473     -0.167094      0.022621
    24   Atom        0.099530     -0.198505      0.098975
    25   Atom        0.260623      0.198782     -0.459405
    26   Atom        0.260023     -0.273105      0.013082
    27   Atom        0.257534     -0.267464      0.009930
 --------------------------------------------------------
                        XY            XZ            YZ
 --------------------------------------------------------
     1   Atom        0.142701      0.194586     -0.080474
     2   Atom       -0.325574     -0.320435     -0.298957
     3   Atom        0.112724     -0.007268      0.211421
     4   Atom       -0.084207     -0.043163     -0.059333
     5   Atom        0.115970      0.069871     -0.086323
     6   Atom        0.115744      0.038125     -0.041280
     7   Atom        1.577348      0.684672      0.686513
     8   Atom       -1.598429     -0.141299     -0.434219
     9   Atom        0.283337     -0.243594      0.884870
    10   Atom        0.108574     -0.017572      0.711565
    11   Atom        0.189058      0.030951      0.770597
    12   Atom        0.718257      0.171426     -0.379006
    13   Atom       -0.428690     -0.215625      0.014290
    14   Atom       -0.438580      0.235876      0.832509
    15   Atom        0.883936      0.115135     -0.133163
    16   Atom       -0.108562     -0.214419     -0.408672
    17   Atom       -0.008456     -0.076507     -0.102567
    18   Atom       -0.212591     -0.003609     -0.009249
    19   Atom        0.003063     -0.015202     -0.035338
    20   Atom        0.024526     -0.014388      0.183315
    21   Atom        0.021518     -0.000984      0.181513
    22   Atom        0.008123      0.041591     -0.096207
    23   Atom        0.017466     -0.014883      0.204984
    24   Atom        0.241266     -0.104054      0.249430
    25   Atom       -0.001842     -0.023673     -0.015367
    26   Atom        0.027663     -0.019020      0.301384
    27   Atom        0.035680     -0.016786      0.301484
 --------------------------------------------------------


 ---------------------------------------------------------------------------------
              Nuclear Quadrupole in Principal Axis System
 ---------------------------------------------------------------------------------

       Atom             a.u.   MegaHertz   Gauss  10(-4) cm-1        Axes

              Baa    -0.3633   -48.752   -17.396   -16.262  0.8437 -0.3071 -0.4403
     1 C(13)  Bbb     0.1653    22.185     7.916     7.400  0.5029  0.1653  0.8484
              Bcc     0.1980    26.568     9.480     8.862  0.1877  0.9372 -0.2939
 
              Baa    -0.6328   -84.916   -30.300   -28.325  0.5336  0.5938  0.6022
     2 C(13)  Bbb     0.2529    33.943    12.112    11.322 -0.0541 -0.6866  0.7250
              Bcc     0.3799    50.974    18.189    17.003  0.8440 -0.4195 -0.3342
 
              Baa    -0.3646   -48.929   -17.459   -16.321 -0.2031  0.8893 -0.4098
     3 C(13)  Bbb     0.1376    18.467     6.590     6.160  0.8117 -0.0813 -0.5784
              Bcc     0.2270    30.462    10.869    10.161  0.5477  0.4501  0.7053
 
              Baa    -0.3761   -50.476   -18.011   -16.837  0.0920  0.1227  0.9882
     4 C(13)  Bbb     0.1078    14.461     5.160     4.824  0.6272  0.7636 -0.1532
              Bcc     0.2684    36.015    12.851    12.013  0.7734 -0.6339  0.0067
 
              Baa    -0.3979   -53.393   -19.052   -17.810 -0.1568  0.1676  0.9733
     5 C(13)  Bbb     0.0923    12.380     4.417     4.129  0.7760 -0.5887  0.2264
              Bcc     0.3056    41.014    14.635    13.681  0.6110  0.7908 -0.0377
 
              Baa    -0.2734   -36.694   -13.093   -12.240  0.9138 -0.3923 -0.1051
     6 C(13)  Bbb     0.0527     7.069     2.522     2.358  0.4040  0.9044  0.1375
              Bcc     0.2208    29.625    10.571     9.882  0.0411 -0.1681  0.9849
 
              Baa    -1.9611   141.905    50.635    47.334  0.7755 -0.6303 -0.0368
     7 O(17)  Bbb    -0.0217     1.568     0.560     0.523 -0.3585 -0.4876  0.7961
              Bcc     1.9828  -143.473   -51.195   -47.858  0.5197  0.6041  0.6041
 
              Baa    -1.4573   105.448    37.627    35.174  0.5249  0.5852  0.6181
     8 O(17)  Bbb    -0.6185    44.757    15.971    14.929 -0.4763 -0.3999  0.7831
              Bcc     2.0758  -150.206   -53.597   -50.103 -0.7054  0.7055 -0.0688
 
              Baa    -1.9268   139.424    49.750    46.507  0.0943 -0.5693  0.8167
     9 O(17)  Bbb    -0.0043     0.311     0.111     0.104 -0.0482  0.8168  0.5749
              Bcc     1.9311  -139.734   -49.861   -46.610  0.9944  0.0936 -0.0496
 
              Baa    -1.8969   137.255    48.976    45.783  0.0160 -0.4091  0.9123
    10 O(17)  Bbb     0.0082    -0.593    -0.211    -0.198 -0.0489  0.9111  0.4094
              Bcc     1.8887  -136.662   -48.764   -45.586  0.9987  0.0512  0.0054
 
              Baa    -1.9204   138.955    49.583    46.351  0.0142 -0.4312  0.9021
    11 O(17)  Bbb     0.0464    -3.358    -1.198    -1.120 -0.1012  0.8970  0.4303
              Bcc     1.8739  -135.597   -48.385   -45.230  0.9948  0.0974  0.0309
 
              Baa    -1.9528   141.307    50.422    47.135  0.9467 -0.3108 -0.0845
    12 O(17)  Bbb     0.4631   -33.511   -11.957   -11.178  0.3212  0.8931  0.3148
              Bcc     1.4897  -107.796   -38.464   -35.957 -0.0224 -0.3252  0.9454
 
              Baa    -0.8376  -181.075   -64.612   -60.400  0.9012  0.4102  0.1399
    13 P(31)  Bbb     0.2621    56.669    20.221    18.903 -0.3428  0.8722 -0.3490
              Bcc     0.5755   124.406    44.391    41.498 -0.2652  0.2666  0.9266
 
              Baa    -1.2524    90.623    32.337    30.229  0.2941  0.8089 -0.5091
    14 O(17)  Bbb     0.5097   -36.881   -13.160   -12.302  0.9443 -0.1637  0.2854
              Bcc     0.7427   -53.743   -19.177   -17.927 -0.1476  0.5647  0.8120
 
              Baa    -1.3611    98.485    35.142    32.851  0.8309 -0.5507 -0.0792
    15 O(17)  Bbb     0.5649   -40.874   -14.585   -13.634  0.5540  0.8057  0.2096
              Bcc     0.7962   -57.610   -20.557   -19.217 -0.0516 -0.2180  0.9746
 
              Baa    -0.8490    61.432    21.921    20.492  0.2070  0.3253  0.9227
    16 O(17)  Bbb     0.3229   -23.368    -8.338    -7.795  0.9660  0.0815 -0.2454
              Bcc     0.5261   -38.065   -13.582   -12.697 -0.1550  0.9421 -0.2974
 
              Baa    -0.2974  -158.663   -56.615   -52.924  0.1757  0.2340  0.9562
    17 H(1)   Bbb     0.1374    73.324    26.164    24.458  0.8343 -0.5511 -0.0185
              Bcc     0.1599    85.339    30.451    28.466  0.5226  0.8010 -0.2921
 
              Baa    -0.2929  -156.255   -55.756   -52.121  0.6656  0.7460  0.0207
    18 H(1)   Bbb     0.1347    71.893    25.653    23.981  0.7398 -0.6559 -0.1499
              Bcc     0.1581    84.362    30.103    28.140  0.0983 -0.1151  0.9885
 
              Baa    -0.2920  -155.786   -55.588   -51.965  0.0333  0.0824  0.9960
    19 H(1)   Bbb     0.1358    72.462    25.856    24.171 -0.2166  0.9735 -0.0733
              Bcc     0.1562    83.324    29.732    27.794  0.9757  0.2133 -0.0503
 
              Baa    -0.2940  -156.860   -55.972   -52.323 -0.0640  0.8752 -0.4796
    20 H(1)   Bbb     0.1428    76.182    27.184    25.412  0.0991  0.4838  0.8696
              Bcc     0.1512    80.678    28.788    26.911  0.9930  0.0081 -0.1177
 
              Baa    -0.2919  -155.756   -55.578   -51.955 -0.0430  0.8727 -0.4863
    21 H(1)   Bbb     0.1316    70.209    25.052    23.419 -0.3583  0.4409  0.8229
              Bcc     0.1603    85.547    30.525    28.535  0.9326  0.2096  0.2937
 
              Baa    -0.2930  -156.318   -55.778   -52.142 -0.0968  0.2256  0.9694
    22 H(1)   Bbb     0.1450    77.342    27.598    25.798  0.6649  0.7394 -0.1057
              Bcc     0.1480    78.976    28.181    26.344  0.7406 -0.6344  0.2216
 
              Baa    -0.2993  -159.676   -56.976   -53.262 -0.0512  0.8413 -0.5381
    23 H(1)   Bbb     0.1446    77.129    27.522    25.728  0.9441  0.2165  0.2487
              Bcc     0.1547    82.546    29.455    27.535 -0.3257  0.4953  0.8053
 
              Baa    -0.4619  -246.462   -87.944   -82.211 -0.4224  0.7965 -0.4326
    24 H(1)   Bbb     0.2031   108.390    38.676    36.155  0.7421  0.0299 -0.6696
              Bcc     0.2588   138.072    49.267    46.056  0.5204  0.6039  0.6037
 
              Baa    -0.4605  -245.724   -87.680   -81.965  0.0329  0.0234  0.9992
    25 H(1)   Bbb     0.1991   106.238    37.908    35.437  0.0207  0.9995 -0.0241
              Bcc     0.2614   139.486    49.772    46.528  0.9992 -0.0214 -0.0324
 
              Baa    -0.4652  -248.204   -88.565   -82.792 -0.0462  0.8443 -0.5339
    26 H(1)   Bbb     0.2036   108.625    38.760    36.233  0.0223  0.5352  0.8444
              Bcc     0.2616   139.579    49.805    46.559  0.9987  0.0271 -0.0435
 
              Baa    -0.4627  -246.900   -88.100   -82.357 -0.0542  0.8410 -0.5383
    27 H(1)   Bbb     0.2026   108.116    38.578    36.063 -0.0890  0.5329  0.8415
              Bcc     0.2601   138.784    49.522    46.293  0.9946  0.0935  0.0460
 

 ---------------------------------------------------------------------------------

 No NMR shielding tensors so no spin-rotation constants.
 Leave Link  601 at Tue Aug 25 13:36:09 2015, MaxMem=   33554432 cpu:       0.4
 Merz-Kollman atomic radii used.
 Atom Element Radius
    1     6    1.50
    2     6    1.50
    3     6    1.50
    4     6    1.50
    5     6    1.50
    6     6    1.50
    7     8    1.40
    8     8    1.40
    9     8    1.40
   10     8    1.40
   11     8    1.40
   12     8    1.40
   13    15    1.80
   14     8    1.40
   15     8    1.40
   16     8    1.40
   17     1    1.20
   18     1    1.20
   19     1    1.20
   20     1    1.20
   21     1    1.20
   22     1    1.20
   23     1    1.20
   24     1    1.20
   25     1    1.20
   26     1    1.20
   27     1    1.20
 Generate VDW surfaces: Layer= 4 Dens= 6 Start= 1.400 Inc= 0.200

 **********************************************************************

            Electrostatic Properties Using The SCF Density

 **********************************************************************

       Atomic Center    1 is at   4.250106 -1.070927  0.658787
       Atomic Center    2 is at   3.692329  0.130501 -0.060332
       Atomic Center    3 is at   2.408230  0.762792  0.411601
       Atomic Center    4 is at   1.226268 -0.117474  0.000508
       Atomic Center    5 is at  -0.083978  0.582819  0.368047
       Atomic Center    6 is at  -1.265946 -0.296450 -0.042961
       Atomic Center    7 is at   5.463676 -1.482241  0.027632
       Atomic Center    8 is at   4.274966  0.587188 -1.015074
       Atomic Center    9 is at   2.267711  2.055295 -0.181292
       Atomic Center   10 is at   1.266339 -0.340564 -1.410998
       Atomic Center   11 is at  -0.124062  0.806990  1.778641
       Atomic Center   12 is at  -2.487073  0.405567  0.193602
       Atomic Center   13 is at  -3.935113 -0.221217 -0.125610
       Atomic Center   14 is at  -4.193339 -1.490129  0.831506
       Atomic Center   15 is at  -5.070754  0.889395  0.139301
       Atomic Center   16 is at  -3.985695 -0.651354 -1.540138
       Atomic Center   17 is at   4.450325 -0.811501  1.698295
       Atomic Center   18 is at   3.526210 -1.885003  0.620409
       Atomic Center   19 is at   2.428823  0.859646  1.496700
       Atomic Center   20 is at   1.286074 -1.073088  0.521460
       Atomic Center   21 is at  -0.142783  1.538439 -0.152912
       Atomic Center   22 is at  -1.186387 -0.540445 -1.102241
       Atomic Center   23 is at  -1.255952 -1.215754  0.542686
       Atomic Center   24 is at   5.879543 -2.252709  0.439413
       Atomic Center   25 is at   2.242339  2.044585 -1.147571
       Atomic Center   26 is at   1.217469  0.467147 -1.938672
       Atomic Center   27 is at  -0.075179 -0.001802  2.307226
      ESP Fit Center   28 is at   2.825331 -0.652575  2.143711
      ESP Fit Center   29 is at   2.765181 -1.070927  2.143711
      ESP Fit Center   30 is at   2.825331 -1.489278  2.143711
      ESP Fit Center   31 is at   4.038779 -2.540737  2.143711
      ESP Fit Center   32 is at   4.461432 -2.540737  2.143711
      ESP Fit Center   33 is at   4.866965 -2.421661  2.143711
      ESP Fit Center   34 is at   2.504019 -1.070927  1.825485
      ESP Fit Center   35 is at   4.460573 -2.804282  1.825485
      ESP Fit Center   36 is at   4.869276 -2.703546  1.825485
      ESP Fit Center   37 is at   5.669136  0.421892  1.068477
      ESP Fit Center   38 is at   5.735030  0.413997  0.658787
      ESP Fit Center   39 is at   3.258159 -1.685114 -1.087299
      ESP Fit Center   40 is at   3.547013 -2.001971 -1.087299
      ESP Fit Center   41 is at   3.930824 -2.193086 -1.087299
      ESP Fit Center   42 is at   3.848288 -1.766895 -1.281360
      ESP Fit Center   43 is at   4.094147  0.826469  1.879815
      ESP Fit Center   44 is at   4.554529  0.916500  1.685754
      ESP Fit Center   45 is at   4.212371  1.174886  1.685754
      ESP Fit Center   46 is at   4.941527  0.933312  1.424592
      ESP Fit Center   47 is at   4.664748  1.252732  1.424592
      ESP Fit Center   48 is at   4.309189  1.481236  1.424592
      ESP Fit Center   49 is at   5.238412  0.941948  1.106366
      ESP Fit Center   50 is at   4.999294  1.288370  1.106366
      ESP Fit Center   51 is at   4.684219  1.567502  1.106366
      ESP Fit Center   52 is at   4.311500  1.763120  1.106366
      ESP Fit Center   53 is at   5.587117  0.547575  0.743303
      ESP Fit Center   54 is at   5.453159  0.945148  0.743303
      ESP Fit Center   55 is at   5.236867  1.304628  0.743303
      ESP Fit Center   56 is at   4.948354  1.609207  0.743303
      ESP Fit Center   57 is at   4.601111  1.844644  0.743303
      ESP Fit Center   58 is at   4.211374  1.999930  0.743303
      ESP Fit Center   59 is at   5.709817  0.545105  0.349358
      ESP Fit Center   60 is at   4.407656  2.061941  0.349358
      ESP Fit Center   61 is at   3.073159 -1.502118 -1.227029
      ESP Fit Center   62 is at   3.481862 -1.602854 -1.227029
      ESP Fit Center   63 is at   3.075469 -1.220234 -1.545256
      ESP Fit Center   64 is at   3.481003 -1.339309 -1.545256
      ESP Fit Center   65 is at   3.903656 -1.339309 -1.545256
      ESP Fit Center   66 is at   3.373047 -0.991659 -1.806418
      ESP Fit Center   67 is at   3.954313  1.574238  1.578298
      ESP Fit Center   68 is at   1.416340  2.199792  1.578298
      ESP Fit Center   69 is at   3.952768  1.936919  1.215236
      ESP Fit Center   70 is at   3.664255  2.241498  1.215236
      ESP Fit Center   71 is at  -0.176466 -2.044360 -0.452651
      ESP Fit Center   72 is at  -1.984068 -2.098802 -0.846596
      ESP Fit Center   73 is at  -1.579827 -2.211039 -0.846596
      ESP Fit Center   74 is at  -1.160908 -2.233752 -0.846596
      ESP Fit Center   75 is at  -0.746901 -2.165879 -0.846596
      ESP Fit Center   76 is at  -0.357165 -2.010594 -0.846596
      ESP Fit Center   77 is at  -0.009921 -1.775157 -0.846596
      ESP Fit Center   78 is at  -1.476413  1.436905 -1.209658
      ESP Fit Center   79 is at  -1.054619  1.173359 -1.527885
      ESP Fit Center   80 is at  -1.477273  1.173359 -1.527885
      ESP Fit Center   81 is at   6.154075 -1.083639  1.818181
      ESP Fit Center   82 is at   6.537940 -1.066069  1.613305
      ESP Fit Center   83 is at   6.315058 -0.706104  1.613305
      ESP Fit Center   84 is at   6.861239 -1.071879  1.339127
      ESP Fit Center   85 is at   6.689016 -0.694763  1.339127
      ESP Fit Center   86 is at   6.417523 -0.381443  1.339127
      ESP Fit Center   87 is at   6.068755 -0.157304  1.339127
      ESP Fit Center   88 is at   7.107759 -1.060112  1.007632
      ESP Fit Center   89 is at   6.951128 -0.664507  1.007632
      ESP Fit Center   90 is at   6.701035 -0.320284  1.007632
      ESP Fit Center   91 is at   6.373194 -0.049070  1.007632
      ESP Fit Center   92 is at   5.988205  0.132092  1.007632
      ESP Fit Center   93 is at   7.281011 -1.067446  0.633305
      ESP Fit Center   94 is at   7.143146 -0.673451  0.633305
      ESP Fit Center   95 is at   6.921066 -0.320012  0.633305
      ESP Fit Center   96 is at   6.625906 -0.024851  0.633305
      ESP Fit Center   97 is at   6.272466  0.197229  0.633305
      ESP Fit Center   98 is at   5.878471  0.335094  0.633305
      ESP Fit Center   99 is at   7.412939 -1.482241  0.232507
      ESP Fit Center  100 is at   7.367367 -1.063207  0.232507
      ESP Fit Center  101 is at   7.232780 -0.663766  0.232507
      ESP Fit Center  102 is at   7.015471 -0.302597  0.232507
      ESP Fit Center  103 is at   6.725603  0.003414  0.232507
      ESP Fit Center  104 is at   6.376728  0.239957  0.232507
      ESP Fit Center  105 is at   5.985160  0.395972  0.232507
      ESP Fit Center  106 is at   7.412939 -1.482241 -0.177244
      ESP Fit Center  107 is at   7.367367 -1.063207 -0.177244
      ESP Fit Center  108 is at   7.232780 -0.663766 -0.177244
      ESP Fit Center  109 is at   7.015471 -0.302597 -0.177244
      ESP Fit Center  110 is at   6.725603  0.003414 -0.177244
      ESP Fit Center  111 is at   6.376728  0.239957 -0.177244
      ESP Fit Center  112 is at   7.327747 -1.482241 -0.578042
      ESP Fit Center  113 is at   7.281011 -1.067446 -0.578042
      ESP Fit Center  114 is at   7.143146 -0.673451 -0.578042
      ESP Fit Center  115 is at   6.921066 -0.320012 -0.578042
      ESP Fit Center  116 is at   6.625906 -0.024851 -0.578042
      ESP Fit Center  117 is at   6.272466  0.197229 -0.578042
      ESP Fit Center  118 is at   4.301447 -2.939630 -0.578042
      ESP Fit Center  119 is at   4.654886 -3.161710 -0.578042
      ESP Fit Center  120 is at   7.281011 -1.897035 -0.578042
      ESP Fit Center  121 is at   7.161086 -1.482241 -0.952368
      ESP Fit Center  122 is at   7.107759 -1.060112 -0.952368
      ESP Fit Center  123 is at   6.951128 -0.664507 -0.952368
      ESP Fit Center  124 is at   6.701035 -0.320284 -0.952368
      ESP Fit Center  125 is at   6.373194 -0.049070 -0.952368
      ESP Fit Center  126 is at   4.090443 -2.479953 -0.952368
      ESP Fit Center  127 is at   4.381707 -2.790117 -0.952368
      ESP Fit Center  128 is at   4.740955 -3.018103 -0.952368
      ESP Fit Center  129 is at   5.145614 -3.149585 -0.952368
      ESP Fit Center  130 is at   5.570258 -3.176301 -0.952368
      ESP Fit Center  131 is at   6.951128 -2.299974 -0.952368
      ESP Fit Center  132 is at   7.107759 -1.904369 -0.952368
      ESP Fit Center  133 is at   6.920240 -1.482241 -1.283864
      ESP Fit Center  134 is at   6.861239 -1.071879 -1.283864
      ESP Fit Center  135 is at   6.689016 -0.694763 -1.283864
      ESP Fit Center  136 is at   6.417523 -0.381443 -1.283864
      ESP Fit Center  137 is at   6.068755 -0.157304 -1.283864
      ESP Fit Center  138 is at   4.066114 -1.892602 -1.283864
      ESP Fit Center  139 is at   4.238337 -2.269719 -1.283864
      ESP Fit Center  140 is at   4.509830 -2.583038 -1.283864
      ESP Fit Center  141 is at   4.858598 -2.807178 -1.283864
      ESP Fit Center  142 is at   5.256386 -2.923979 -1.283864
      ESP Fit Center  143 is at   5.670967 -2.923979 -1.283864
      ESP Fit Center  144 is at   6.068755 -2.807178 -1.283864
      ESP Fit Center  145 is at   6.417523 -2.583038 -1.283864
      ESP Fit Center  146 is at   6.689016 -2.269719 -1.283864
      ESP Fit Center  147 is at   6.861239 -1.892602 -1.283864
      ESP Fit Center  148 is at   6.615736 -1.482241 -1.558042
      ESP Fit Center  149 is at   6.537940 -1.066069 -1.558042
      ESP Fit Center  150 is at   6.315058 -0.706104 -1.558042
      ESP Fit Center  151 is at   5.977193 -0.450960 -1.558042
      ESP Fit Center  152 is at   4.331233 -1.693931 -1.558042
      ESP Fit Center  153 is at   4.484176 -2.088722 -1.558042
      ESP Fit Center  154 is at   4.769406 -2.401604 -1.558042
      ESP Fit Center  155 is at   5.148401 -2.590321 -1.558042
      ESP Fit Center  156 is at   5.569975 -2.629385 -1.558042
      ESP Fit Center  157 is at   5.977193 -2.513522 -1.558042
      ESP Fit Center  158 is at   6.315058 -2.258378 -1.558042
      ESP Fit Center  159 is at   6.537940 -1.898412 -1.558042
      ESP Fit Center  160 is at   6.260880 -1.482241 -1.762918
      ESP Fit Center  161 is at   6.154075 -1.083639 -1.762918
      ESP Fit Center  162 is at   5.862278 -0.791842 -1.762918
      ESP Fit Center  163 is at   4.666473 -1.482241 -1.762918
      ESP Fit Center  164 is at   4.773278 -1.880843 -1.762918
      ESP Fit Center  165 is at   5.065075 -2.172639 -1.762918
      ESP Fit Center  166 is at   5.463676 -2.279445 -1.762918
      ESP Fit Center  167 is at   5.862278 -2.172639 -1.762918
      ESP Fit Center  168 is at   6.154075 -1.880843 -1.762918
      ESP Fit Center  169 is at   5.871183 -1.482241 -1.889538
      ESP Fit Center  170 is at   5.667430 -1.129329 -1.889538
      ESP Fit Center  171 is at   5.259923 -1.129329 -1.889538
      ESP Fit Center  172 is at   5.056170 -1.482241 -1.889538
      ESP Fit Center  173 is at   5.259923 -1.835152 -1.889538
      ESP Fit Center  174 is at   5.667430 -1.835152 -1.889538
      ESP Fit Center  175 is at   5.463676 -1.482241 -1.932368
      ESP Fit Center  176 is at   5.731530  0.587188  0.296422
      ESP Fit Center  177 is at   5.672529  0.997549  0.296422
      ESP Fit Center  178 is at   5.500305  1.374665  0.296422
      ESP Fit Center  179 is at   5.228812  1.687985  0.296422
      ESP Fit Center  180 is at   4.880044  1.912125  0.296422
      ESP Fit Center  181 is at   5.972376  0.587188 -0.035074
      ESP Fit Center  182 is at   5.919048  1.009316 -0.035074
      ESP Fit Center  183 is at   5.762417  1.404921 -0.035074
      ESP Fit Center  184 is at   5.512324  1.749144 -0.035074
      ESP Fit Center  185 is at   5.184484  2.020358 -0.035074
      ESP Fit Center  186 is at   4.799494  2.201520 -0.035074
      ESP Fit Center  187 is at   4.381547  2.281248 -0.035074
      ESP Fit Center  188 is at   6.139037  0.587188 -0.409400
      ESP Fit Center  189 is at   6.092300  1.001982 -0.409400
      ESP Fit Center  190 is at   5.954436  1.395978 -0.409400
      ESP Fit Center  191 is at   5.732355  1.749417 -0.409400
      ESP Fit Center  192 is at   5.437195  2.044577 -0.409400
      ESP Fit Center  193 is at   5.083756  2.266657 -0.409400
      ESP Fit Center  194 is at   4.689761  2.404522 -0.409400
      ESP Fit Center  195 is at   4.274966  2.451258 -0.409400
      ESP Fit Center  196 is at   6.224229  0.587188 -0.810198
      ESP Fit Center  197 is at   6.178656  1.006221 -0.810198
      ESP Fit Center  198 is at   6.044069  1.405662 -0.810198
      ESP Fit Center  199 is at   5.826761  1.766831 -0.810198
      ESP Fit Center  200 is at   5.536892  2.072842 -0.810198
      ESP Fit Center  201 is at   5.188017  2.309385 -0.810198
      ESP Fit Center  202 is at   4.796449  2.465400 -0.810198
      ESP Fit Center  203 is at   4.380497  2.533592 -0.810198
      ESP Fit Center  204 is at   6.178656  0.168154 -0.810198
      ESP Fit Center  205 is at   6.224229  0.587188 -1.219949
      ESP Fit Center  206 is at   6.178656  1.006221 -1.219949
      ESP Fit Center  207 is at   6.044069  1.405662 -1.219949
      ESP Fit Center  208 is at   5.826761  1.766831 -1.219949
      ESP Fit Center  209 is at   5.536892  2.072842 -1.219949
      ESP Fit Center  210 is at   5.188017  2.309385 -1.219949
      ESP Fit Center  211 is at   4.796449  2.465400 -1.219949
      ESP Fit Center  212 is at   4.380497  2.533592 -1.219949
      ESP Fit Center  213 is at   3.959610  2.510772 -1.219949
      ESP Fit Center  214 is at   6.178656  0.168154 -1.219949
      ESP Fit Center  215 is at   6.139037  0.587188 -1.620747
      ESP Fit Center  216 is at   6.092300  1.001982 -1.620747
      ESP Fit Center  217 is at   5.954436  1.395978 -1.620747
      ESP Fit Center  218 is at   5.732355  1.749417 -1.620747
      ESP Fit Center  219 is at   5.437195  2.044577 -1.620747
      ESP Fit Center  220 is at   5.083756  2.266657 -1.620747
      ESP Fit Center  221 is at   4.689761  2.404522 -1.620747
      ESP Fit Center  222 is at   4.274966  2.451258 -1.620747
      ESP Fit Center  223 is at   3.860171  2.404522 -1.620747
      ESP Fit Center  224 is at   4.274966 -1.276883 -1.620747
      ESP Fit Center  225 is at   5.954436 -0.221602 -1.620747
      ESP Fit Center  226 is at   6.092300  0.172393 -1.620747
      ESP Fit Center  227 is at   5.972376  0.587188 -1.995074
      ESP Fit Center  228 is at   5.919048  1.009316 -1.995074
      ESP Fit Center  229 is at   5.762417  1.404921 -1.995074
      ESP Fit Center  230 is at   5.512324  1.749144 -1.995074
      ESP Fit Center  231 is at   5.184484  2.020358 -1.995074
      ESP Fit Center  232 is at   4.799494  2.201520 -1.995074
      ESP Fit Center  233 is at   4.381547  2.281248 -1.995074
      ESP Fit Center  234 is at   3.956903  2.254532 -1.995074
      ESP Fit Center  235 is at   3.192996 -0.720689 -1.995074
      ESP Fit Center  236 is at   3.552244 -0.948675 -1.995074
      ESP Fit Center  237 is at   3.956903 -1.080156 -1.995074
      ESP Fit Center  238 is at   4.381547 -1.106873 -1.995074
      ESP Fit Center  239 is at   4.799494 -1.027145 -1.995074
      ESP Fit Center  240 is at   5.184484 -0.845983 -1.995074
      ESP Fit Center  241 is at   5.512324 -0.574769 -1.995074
      ESP Fit Center  242 is at   5.762417 -0.230546 -1.995074
      ESP Fit Center  243 is at   5.919048  0.165059 -1.995074
      ESP Fit Center  244 is at   5.731530  0.587188 -2.326570
      ESP Fit Center  245 is at   5.672529  0.997549 -2.326570
      ESP Fit Center  246 is at   5.500305  1.374665 -2.326570
      ESP Fit Center  247 is at   5.228812  1.687985 -2.326570
      ESP Fit Center  248 is at   4.880044  1.912125 -2.326570
      ESP Fit Center  249 is at   4.482257  2.028926 -2.326570
      ESP Fit Center  250 is at   4.067675  2.028926 -2.326570
      ESP Fit Center  251 is at   3.669887  1.912125 -2.326570
      ESP Fit Center  252 is at   2.877403  0.997549 -2.326570
      ESP Fit Center  253 is at   3.049626 -0.200290 -2.326570
      ESP Fit Center  254 is at   3.321119 -0.513610 -2.326570
      ESP Fit Center  255 is at   3.669887 -0.737750 -2.326570
      ESP Fit Center  256 is at   4.067675 -0.854551 -2.326570
      ESP Fit Center  257 is at   4.482257 -0.854551 -2.326570
      ESP Fit Center  258 is at   4.880044 -0.737750 -2.326570
      ESP Fit Center  259 is at   5.228812 -0.513610 -2.326570
      ESP Fit Center  260 is at   5.500305 -0.200290 -2.326570
      ESP Fit Center  261 is at   5.672529  0.176826 -2.326570
      ESP Fit Center  262 is at   5.427025  0.587188 -2.600747
      ESP Fit Center  263 is at   5.349229  1.003359 -2.600747
      ESP Fit Center  264 is at   5.126348  1.363325 -2.600747
      ESP Fit Center  265 is at   4.788483  1.618469 -2.600747
      ESP Fit Center  266 is at   4.381264  1.734332 -2.600747
      ESP Fit Center  267 is at   3.959690  1.695267 -2.600747
      ESP Fit Center  268 is at   3.580695  1.506551 -2.600747
      ESP Fit Center  269 is at   3.295465  1.193668 -2.600747
      ESP Fit Center  270 is at   3.142523  0.798878 -2.600747
      ESP Fit Center  271 is at   3.142523  0.375497 -2.600747
      ESP Fit Center  272 is at   3.295465 -0.019293 -2.600747
      ESP Fit Center  273 is at   3.580695 -0.332175 -2.600747
      ESP Fit Center  274 is at   3.959690 -0.520892 -2.600747
      ESP Fit Center  275 is at   4.381264 -0.559957 -2.600747
      ESP Fit Center  276 is at   4.788483 -0.444093 -2.600747
      ESP Fit Center  277 is at   5.126348 -0.188950 -2.600747
      ESP Fit Center  278 is at   5.349229  0.171016 -2.600747
      ESP Fit Center  279 is at   5.072170  0.587188 -2.805623
      ESP Fit Center  280 is at   4.965365  0.985789 -2.805623
      ESP Fit Center  281 is at   4.673568  1.277586 -2.805623
      ESP Fit Center  282 is at   4.274966  1.384391 -2.805623
      ESP Fit Center  283 is at   3.876364  1.277586 -2.805623
      ESP Fit Center  284 is at   3.584567  0.985789 -2.805623
      ESP Fit Center  285 is at   3.477762  0.587188 -2.805623
      ESP Fit Center  286 is at   3.584567  0.188586 -2.805623
      ESP Fit Center  287 is at   3.876364 -0.103211 -2.805623
      ESP Fit Center  288 is at   4.274966 -0.210016 -2.805623
      ESP Fit Center  289 is at   4.673568 -0.103211 -2.805623
      ESP Fit Center  290 is at   4.965365  0.188586 -2.805623
      ESP Fit Center  291 is at   4.682473  0.587188 -2.932243
      ESP Fit Center  292 is at   4.478719  0.940099 -2.932243
      ESP Fit Center  293 is at   4.071212  0.940099 -2.932243
      ESP Fit Center  294 is at   3.867459  0.587188 -2.932243
      ESP Fit Center  295 is at   4.071212  0.234276 -2.932243
      ESP Fit Center  296 is at   4.478719  0.234276 -2.932243
      ESP Fit Center  297 is at   4.274966  0.587188 -2.975074
      ESP Fit Center  298 is at   2.958109  2.453897  1.609257
      ESP Fit Center  299 is at   2.666312  2.745694  1.609257
      ESP Fit Center  300 is at   2.267711  2.852499  1.609257
      ESP Fit Center  301 is at   1.869109  2.745694  1.609257
      ESP Fit Center  302 is at   1.577312  2.453897  1.609257
      ESP Fit Center  303 is at   3.341974  2.471467  1.404382
      ESP Fit Center  304 is at   3.119092  2.831432  1.404382
      ESP Fit Center  305 is at   2.781227  3.086576  1.404382
      ESP Fit Center  306 is at   2.374009  3.202440  1.404382
      ESP Fit Center  307 is at   1.952435  3.163375  1.404382
      ESP Fit Center  308 is at   1.573440  2.974658  1.404382
      ESP Fit Center  309 is at   1.288210  2.661776  1.404382
      ESP Fit Center  310 is at   1.135267  2.266985  1.404382
      ESP Fit Center  311 is at   3.665273  2.465656  1.130204
      ESP Fit Center  312 is at   3.493050  2.842773  1.130204
      ESP Fit Center  313 is at   3.221557  3.156093  1.130204
      ESP Fit Center  314 is at   2.872789  3.380232  1.130204
      ESP Fit Center  315 is at   2.475001  3.497033  1.130204
      ESP Fit Center  316 is at   2.060420  3.497033  1.130204
      ESP Fit Center  317 is at   1.662632  3.380232  1.130204
      ESP Fit Center  318 is at   1.313864  3.156093  1.130204
      ESP Fit Center  319 is at   1.042371  2.842773  1.130204
      ESP Fit Center  320 is at   0.870148  2.465656  1.130204
      ESP Fit Center  321 is at   3.911793  2.477424  0.798708
      ESP Fit Center  322 is at   3.755162  2.873028  0.798708
      ESP Fit Center  323 is at   3.505069  3.217252  0.798708
      ESP Fit Center  324 is at   3.177228  3.488465  0.798708
      ESP Fit Center  325 is at   2.792239  3.669628  0.798708
      ESP Fit Center  326 is at   2.374292  3.749355  0.798708
      ESP Fit Center  327 is at   1.949648  3.722639  0.798708
      ESP Fit Center  328 is at   1.544989  3.591157  0.798708
      ESP Fit Center  329 is at   1.185741  3.363172  0.798708
      ESP Fit Center  330 is at   0.894477  3.053007  0.798708
      ESP Fit Center  331 is at   0.689499  2.680153  0.798708
      ESP Fit Center  332 is at   4.085045  2.470090  0.424382
      ESP Fit Center  333 is at   3.947180  2.864085  0.424382
      ESP Fit Center  334 is at   3.725100  3.217524  0.424382
      ESP Fit Center  335 is at   3.429940  3.512684  0.424382
      ESP Fit Center  336 is at   3.076501  3.734765  0.424382
      ESP Fit Center  337 is at   2.682505  3.872630  0.424382
      ESP Fit Center  338 is at   2.267711  3.919366  0.424382
      ESP Fit Center  339 is at   1.852916  3.872630  0.424382
      ESP Fit Center  340 is at   1.458921  3.734765  0.424382
      ESP Fit Center  341 is at   1.105481  3.512684  0.424382
      ESP Fit Center  342 is at   0.810321  3.217524  0.424382
      ESP Fit Center  343 is at   4.171401  2.474329  0.023584
      ESP Fit Center  344 is at   4.036814  2.873769  0.023584
      ESP Fit Center  345 is at   3.819505  3.234939  0.023584
      ESP Fit Center  346 is at   3.529637  3.540949  0.023584
      ESP Fit Center  347 is at   3.180762  3.777492  0.023584
      ESP Fit Center  348 is at   2.789194  3.933507  0.023584
      ESP Fit Center  349 is at   2.373241  4.001699  0.023584
      ESP Fit Center  350 is at   1.952355  3.978879  0.023584
      ESP Fit Center  351 is at   1.546214  3.866115  0.023584
      ESP Fit Center  352 is at   1.173809  3.668678  0.023584
      ESP Fit Center  353 is at   0.852554  3.395802  0.023584
      ESP Fit Center  354 is at   0.597471  3.060245  0.023584
      ESP Fit Center  355 is at   4.171401  2.474329 -0.386167
      ESP Fit Center  356 is at   4.036814  2.873769 -0.386167
      ESP Fit Center  357 is at   3.819505  3.234939 -0.386167
      ESP Fit Center  358 is at   3.529637  3.540949 -0.386167
      ESP Fit Center  359 is at   3.180762  3.777492 -0.386167
      ESP Fit Center  360 is at   2.789194  3.933507 -0.386167
      ESP Fit Center  361 is at   2.373241  4.001699 -0.386167
      ESP Fit Center  362 is at   1.952355  3.978879 -0.386167
      ESP Fit Center  363 is at   1.546214  3.866115 -0.386167
      ESP Fit Center  364 is at   1.173809  3.668678 -0.386167
      ESP Fit Center  365 is at   0.852554  3.395802 -0.386167
      ESP Fit Center  366 is at   0.597471  3.060245 -0.386167
      ESP Fit Center  367 is at   3.947180  2.864085 -0.786965
      ESP Fit Center  368 is at   3.725100  3.217524 -0.786965
      ESP Fit Center  369 is at   3.429940  3.512684 -0.786965
      ESP Fit Center  370 is at   3.076501  3.734765 -0.786965
      ESP Fit Center  371 is at   2.682505  3.872630 -0.786965
      ESP Fit Center  372 is at   2.267711  3.919366 -0.786965
      ESP Fit Center  373 is at   1.852916  3.872630 -0.786965
      ESP Fit Center  374 is at   1.458921  3.734765 -0.786965
      ESP Fit Center  375 is at   1.105481  3.512684 -0.786965
      ESP Fit Center  376 is at   0.810321  3.217524 -0.786965
      ESP Fit Center  377 is at   3.755162  2.873028 -1.161292
      ESP Fit Center  378 is at   3.505069  3.217252 -1.161292
      ESP Fit Center  379 is at   3.177228  3.488465 -1.161292
      ESP Fit Center  380 is at   2.792239  3.669628 -1.161292
      ESP Fit Center  381 is at   2.374292  3.749355 -1.161292
      ESP Fit Center  382 is at   1.949648  3.722639 -1.161292
      ESP Fit Center  383 is at   1.544989  3.591157 -1.161292
      ESP Fit Center  384 is at   1.185741  3.363172 -1.161292
      ESP Fit Center  385 is at   0.894477  3.053007 -1.161292
      ESP Fit Center  386 is at   0.104110 -1.797953 -0.805325
      ESP Fit Center  387 is at   0.457549 -2.020033 -0.805325
      ESP Fit Center  388 is at   0.851544 -2.157898 -0.805325
      ESP Fit Center  389 is at   1.266339 -2.204635 -0.805325
      ESP Fit Center  390 is at   1.681134 -2.157898 -0.805325
      ESP Fit Center  391 is at   2.075129 -2.020033 -0.805325
      ESP Fit Center  392 is at   2.428568 -1.797953 -0.805325
      ESP Fit Center  393 is at   0.172438 -1.953947 -1.206122
      ESP Fit Center  394 is at   0.544843 -2.151384 -1.206122
      ESP Fit Center  395 is at   0.950984 -2.264148 -1.206122
      ESP Fit Center  396 is at   1.371870 -2.286968 -1.206122
      ESP Fit Center  397 is at   1.787822 -2.218776 -1.206122
      ESP Fit Center  398 is at   2.179390 -2.062761 -1.206122
      ESP Fit Center  399 is at   2.528265 -1.826218 -1.206122
      ESP Fit Center  400 is at   2.818134 -1.520207 -1.206122
      ESP Fit Center  401 is at   0.172438 -1.953947 -1.615874
      ESP Fit Center  402 is at   0.544843 -2.151384 -1.615874
      ESP Fit Center  403 is at   0.950984 -2.264148 -1.615874
      ESP Fit Center  404 is at   1.371870 -2.286968 -1.615874
      ESP Fit Center  405 is at   1.787822 -2.218776 -1.615874
      ESP Fit Center  406 is at   2.179390 -2.062761 -1.615874
      ESP Fit Center  407 is at   2.528265 -1.826218 -1.615874
      ESP Fit Center  408 is at   2.818134 -1.520207 -1.615874
      ESP Fit Center  409 is at   3.035442 -1.159038 -1.615874
      ESP Fit Center  410 is at   0.104110 -1.797953 -2.016671
      ESP Fit Center  411 is at   0.457549 -2.020033 -2.016671
      ESP Fit Center  412 is at   0.851544 -2.157898 -2.016671
      ESP Fit Center  413 is at   1.266339 -2.204635 -2.016671
      ESP Fit Center  414 is at   1.681134 -2.157898 -2.016671
      ESP Fit Center  415 is at   2.075129 -2.020033 -2.016671
      ESP Fit Center  416 is at   2.428568 -1.797953 -2.016671
      ESP Fit Center  417 is at   2.723728 -1.502793 -2.016671
      ESP Fit Center  418 is at   2.945809 -1.149354 -2.016671
      ESP Fit Center  419 is at   3.083674 -0.755359 -2.016671
      ESP Fit Center  420 is at   2.963749 -0.340564 -2.390998
      ESP Fit Center  421 is at   2.910422  0.081565 -2.390998
      ESP Fit Center  422 is at  -0.106894 -1.338276 -2.390998
      ESP Fit Center  423 is at   0.184369 -1.648440 -2.390998
      ESP Fit Center  424 is at   0.543617 -1.876426 -2.390998
      ESP Fit Center  425 is at   0.948276 -2.007908 -2.390998
      ESP Fit Center  426 is at   1.372920 -2.034624 -2.390998
[...]
 7472 Fit      -0.088462
 7473 Fit      -0.090516
 7474 Fit      -0.092594
 7475 Fit      -0.094678
 7476 Fit      -0.096651
 7477 Fit      -0.098318
 7478 Fit      -0.099705
 7479 Fit      -0.098654
 7480 Fit      -0.097191
 7481 Fit      -0.095180
 7482 Fit      -0.092576
 7483 Fit      -0.089556
 7484 Fit      -0.086448
 7485 Fit      -0.083678
 7486 Fit      -0.081695
 7487 Fit      -0.080847
 7488 Fit      -0.081208
 7489 Fit      -0.082523
 7490 Fit      -0.084759
 7491 Fit      -0.087122
 7492 Fit      -0.089274
 7493 Fit      -0.091266
 7494 Fit      -0.093201
 7495 Fit      -0.095150
 7496 Fit      -0.097099
 7497 Fit      -0.098910
 7498 Fit      -0.100113
 7499 Fit      -0.099034
 7500 Fit      -0.097502
 7501 Fit      -0.089105
 7502 Fit      -0.085657
 7503 Fit      -0.082447
 7504 Fit      -0.079944
 7505 Fit      -0.078612
 7506 Fit      -0.078711
 7507 Fit      -0.080101
 7508 Fit      -0.082299
 7509 Fit      -0.086107
 7510 Fit      -0.088856
 7511 Fit      -0.091114
 7512 Fit      -0.093017
 7513 Fit      -0.094743
 7514 Fit      -0.096432
 7515 Fit      -0.098152
 7516 Fit      -0.099869
 7517 Fit      -0.101399
 7518 Fit      -0.075349
 7519 Fit      -0.076788
 7520 Fit      -0.079564
 7521 Fit      -0.082896
 7522 Fit      -0.088781
 7523 Fit      -0.092132
 7524 Fit      -0.094547
 7525 Fit      -0.096347
 7526 Fit      -0.097841
 7527 Fit      -0.099253
 7528 Fit      -0.100699
 7529 Fit      -0.102192
 7530 Fit      -0.103598
 7531 Fit      -0.099800
 7532 Fit      -0.101263
 7533 Fit      -0.102308
 7534 Fit      -0.103246
 7535 Fit      -0.104224
 7536 Fit      -0.102509
 7537 Fit      -0.101252
 7538 Fit      -0.098319
 7539 Fit      -0.094423
 7540 Fit      -0.106564
 7541 Fit      -0.105147
 7542 Fit      -0.102120
 7543 Fit      -0.098156
 7544 Fit      -0.093768
 7545 Fit      -0.110225
 7546 Fit      -0.107503
 7547 Fit      -0.103593
 7548 Fit      -0.099112
 7549 Fit      -0.094400
 7550 Fit      -0.089546
 7551 Fit      -0.113159
 7552 Fit      -0.109404
 7553 Fit      -0.104931
 7554 Fit      -0.100186
 7555 Fit      -0.095351
 7556 Fit      -0.090382
 7557 Fit      -0.118304
 7558 Fit      -0.114282
 7559 Fit      -0.109470
 7560 Fit      -0.104412
 7561 Fit      -0.099343
 7562 Fit      -0.094251
 7563 Fit      -0.088891
 7564 Fit      -0.119381
 7565 Fit      -0.114328
 7566 Fit      -0.109061
 7567 Fit      -0.103867
 7568 Fit      -0.098790
 7569 Fit      -0.093663
 7570 Fit      -0.088060
 7571 Fit      -0.121290
 7572 Fit      -0.115783
 7573 Fit      -0.110347
 7574 Fit      -0.105155
 7575 Fit      -0.100180
 7576 Fit      -0.095199
 7577 Fit      -0.089719
 7578 Fit      -0.127080
 7579 Fit      -0.121090
 7580 Fit      -0.115250
 7581 Fit      -0.109800
 7582 Fit      -0.104772
 7583 Fit      -0.100026
 7584 Fit      -0.095203
 7585 Fit      -0.129099
 7586 Fit      -0.122601
 7587 Fit      -0.116612
 7588 Fit      -0.111289
 7589 Fit      -0.106630
 7590 Fit      -0.102505
 7591 Fit      -0.138123
 7592 Fit      -0.130828
 7593 Fit      -0.124203
 7594 Fit      -0.118466
 7595 Fit      -0.113723
 7596 Fit      -0.110033
 7597 Fit      -0.137978
 7598 Fit      -0.130336
 7599 Fit      -0.124081
 7600 Fit      -0.119353
 7601 Fit      -0.116387
 7602 Fit      -0.137220
 7603 Fit      -0.130323
 7604 Fit      -0.125651
 7605 Fit      -0.123618
 7606 Fit      -0.139336
 7607 Fit      -0.133470
 7608 Fit      -0.118339
 7609 Fit      -0.111997
 7610 Fit      -0.118355
 7611 Fit      -0.125876
 7612 Fit      -0.126103
 7613 Fit      -0.118172
 7614 Fit      -0.111762
 7615 Fit      -0.106834
 7616 Fit      -0.111715
 7617 Fit      -0.118547
 7618 Fit      -0.126595
 7619 Fit      -0.134438
 7620 Fit      -0.117465
 7621 Fit      -0.110462
 7622 Fit      -0.105967
 7623 Fit      -0.104694
 7624 Fit      -0.102675
 7625 Fit      -0.107097
 7626 Fit      -0.112641
 7627 Fit      -0.119181
 7628 Fit      -0.126694
 7629 Fit      -0.135100
 7630 Fit      -0.143926
 7631 Fit      -0.109623
 7632 Fit      -0.104461
 7633 Fit      -0.100697
 7634 Fit      -0.099761
 7635 Fit      -0.104021
 7636 Fit      -0.109248
 7637 Fit      -0.115088
 7638 Fit      -0.121625
 7639 Fit      -0.128989
 7640 Fit      -0.137362
 7641 Fit      -0.146944
 7642 Fit      -0.104963
 7643 Fit      -0.102169
 7644 Fit      -0.107536
 7645 Fit      -0.113228
 7646 Fit      -0.119379
 7647 Fit      -0.126122
 7648 Fit      -0.133620
 7649 Fit      -0.142132
 7650 Fit      -0.152100
 7651 Fit      -0.102175
 7652 Fit      -0.106907
 7653 Fit      -0.112590
 7654 Fit      -0.118542
 7655 Fit      -0.124890
 7656 Fit      -0.131733
 7657 Fit      -0.139194
 7658 Fit      -0.147514
 7659 Fit      -0.157170
 7660 Fit      -0.114245
 7661 Fit      -0.120610
 7662 Fit      -0.127310
 7663 Fit      -0.134413
 7664 Fit      -0.109144
 7665 Fit      -0.104483
 7666 Fit      -0.121303
 7667 Fit      -0.114463
 7668 Fit      -0.107965
 7669 Fit      -0.130444
 7670 Fit      -0.122537
 7671 Fit      -0.114825
 7672 Fit      -0.143446
 7673 Fit      -0.134243
 7674 Fit      -0.125292
 7675 Fit      -0.116869
 7676 Fit      -0.147421
 7677 Fit      -0.137384
 7678 Fit      -0.128022
 7679 Fit      -0.119295
 7680 Fit      -0.157585
 7681 Fit      -0.146293
 7682 Fit      -0.135928
 7683 Fit      -0.126415
 7684 Fit      -0.155547
 7685 Fit      -0.144502
 7686 Fit      -0.134502
 7687 Fit      -0.125254
 7688 Fit      -0.156703
 7689 Fit      -0.145908
 7690 Fit      -0.136182
 7691 Fit      -0.164926
 7692 Fit      -0.153525
 7693 Fit      -0.143391
 7694 Fit      -0.134239
 7695 Fit      -0.177471
 7696 Fit      -0.165108
 7697 Fit      -0.154178
 7698 Fit      -0.144577
 7699 Fit      -0.177688
 7700 Fit      -0.166252
 7701 Fit      -0.156277
 7702 Fit      -0.147706
 7703 Fit      -0.193374
 7704 Fit      -0.196843
 7705 Fit      -0.204125
 7706 Fit      -0.215217
 7707 Fit      -0.188811
 7708 Fit      -0.193825
 7709 Fit      -0.202659
 7710 Fit      -0.215394
 7711 Fit      -0.232452
 7712 Fit      -0.182697
 7713 Fit      -0.185641
 7714 Fit      -0.192310
 7715 Fit      -0.202542
 7716 Fit      -0.216573
 7717 Fit      -0.234955
 7718 Fit      -0.179716
 7719 Fit      -0.185673
 7720 Fit      -0.194892
 7721 Fit      -0.207537
 7722 Fit      -0.224043
 7723 Fit      -0.172014
 7724 Fit      -0.176449
 7725 Fit      -0.183932
 7726 Fit      -0.194527
 7727 Fit      -0.208529
 7728 Fit      -0.226419
 7729 Fit      -0.168967
 7730 Fit      -0.176171
 7731 Fit      -0.186104
 7732 Fit      -0.199107
 7733 Fit      -0.215582
 7734 Fit      -0.235918
 7735 Fit      -0.160664
 7736 Fit      -0.168304
 7737 Fit      -0.177836
 7738 Fit      -0.189825
 7739 Fit      -0.204672
 7740 Fit      -0.222611
 7741 Fit      -0.155044
 7742 Fit      -0.164879
 7743 Fit      -0.176047
 7744 Fit      -0.189404
 7745 Fit      -0.205328
 7746 Fit      -0.223681
 7747 Fit      -0.150029
 7748 Fit      -0.161942
 7749 Fit      -0.174569
 7750 Fit      -0.188883
 7751 Fit      -0.204984
 7752 Fit      -0.221968
 7753 Fit      -0.149054
 7754 Fit      -0.163181
 7755 Fit      -0.177747
 7756 Fit      -0.193133
 7757 Fit      -0.208022
 7758 Fit      -0.170631
 7759 Fit      -0.186069
 7760 Fit      -0.196494
 7761 Fit      -0.217098
 7762 Fit      -0.207090
 7763 Fit      -0.261247
 7764 Fit      -0.239294
 7765 Fit      -0.223084
 7766 Fit      -0.211817
 7767 Fit      -0.247684
 7768 Fit      -0.229590
 7769 Fit      -0.216740
 7770 Fit      -0.208765
 7771 Fit      -0.213799
 7772 Fit      -0.237099
 7773 Fit      -0.247040
 7774 Fit      -0.228805
 7775 Fit      -0.216108
 7776 Fit      -0.208600
 7777 Fit      -0.213561
 7778 Fit      -0.235765
 7779 Fit      -0.245554
 7780 Fit      -0.227786
 7781 Fit      -0.215331
 7782 Fit      -0.207892
 7783 Fit      -0.200687
 7784 Fit      -0.219607
 7785 Fit      -0.241461
 7786 Fit      -0.248952
 7787 Fit      -0.230476
 7788 Fit      -0.216657
 7789 Fit      -0.207685
 7790 Fit      -0.196853
 7791 Fit      -0.211828
 7792 Fit      -0.231739
 7793 Fit      -0.250726
 7794 Fit      -0.237752
 7795 Fit      -0.221319
 7796 Fit      -0.209215
 7797 Fit      -0.203554
 7798 Fit      -0.206998
 7799 Fit      -0.223467
 7800 Fit      -0.235175
 7801 Fit      -0.227082
 7802 Fit      -0.212198
 7803 Fit      -0.216920
 7804 Fit      -0.238951
 7805 Fit      -0.218170
 7806 Fit      -0.195314
 7807 Fit      -0.230957
 7808 Fit      -0.207850
 7809 Fit      -0.187767
 7810 Fit      -0.226454
 7811 Fit      -0.204226
 7812 Fit      -0.185787
 7813 Fit      -0.170151
 7814 Fit      -0.228186
 7815 Fit      -0.205948
 7816 Fit      -0.187925
 7817 Fit      -0.172879
 7818 Fit      -0.159746
 7819 Fit      -0.229072
 7820 Fit      -0.207621
 7821 Fit      -0.190372
 7822 Fit      -0.176051
 7823 Fit      -0.163652
 7824 Fit      -0.244242
 7825 Fit      -0.219799
 7826 Fit      -0.200662
 7827 Fit      -0.185190
 7828 Fit      -0.172203
 7829 Fit      -0.160735
 7830 Fit      -0.232800
 7831 Fit      -0.211948
 7832 Fit      -0.195381
 7833 Fit      -0.181804
 7834 Fit      -0.170234
 7835 Fit      -0.253761
 7836 Fit      -0.229362
 7837 Fit      -0.210341
 7838 Fit      -0.195139
 7839 Fit      -0.182668
 7840 Fit      -0.172070
 7841 Fit      -0.264554
 7842 Fit      -0.238405
 7843 Fit      -0.218151
 7844 Fit      -0.202184
 7845 Fit      -0.189380
 7846 Fit      -0.178882
 7847 Fit      -0.255165
 7848 Fit      -0.231936
 7849 Fit      -0.213874
 7850 Fit      -0.199768
 7851 Fit      -0.188726
 7852 Fit      -0.180054
 7853 Fit      -0.247451
 7854 Fit      -0.227225
 7855 Fit      -0.211634
 7856 Fit      -0.199830
 7857 Fit      -0.074487
 7858 Fit      -0.072948
 7859 Fit      -0.074054
 7860 Fit      -0.077441
 7861 Fit      -0.073977
 7862 Fit      -0.071870
 7863 Fit      -0.070873
 7864 Fit      -0.071601
 7865 Fit      -0.073955
 7866 Fit      -0.077677
 7867 Fit      -0.081565
 7868 Fit      -0.074335
 7869 Fit      -0.071943
 7870 Fit      -0.070081
 7871 Fit      -0.069172
 7872 Fit      -0.069481
 7873 Fit      -0.071107
 7874 Fit      -0.074251
 7875 Fit      -0.078322
 7876 Fit      -0.082923
 7877 Fit      -0.076114
 7878 Fit      -0.073467
 7879 Fit      -0.071022
 7880 Fit      -0.069130
 7881 Fit      -0.068052
 7882 Fit      -0.067962
 7883 Fit      -0.068960
 7884 Fit      -0.071073
 7885 Fit      -0.075002
 7886 Fit      -0.079436
 7887 Fit      -0.084626
 7888 Fit      -0.076650
 7889 Fit      -0.073806
 7890 Fit      -0.071189
 7891 Fit      -0.069088
 7892 Fit      -0.067707
 7893 Fit      -0.067185
 7894 Fit      -0.067612
 7895 Fit      -0.069046
 7896 Fit      -0.071513
 7897 Fit      -0.076261
 7898 Fit      -0.080910
 7899 Fit      -0.086447
 7900 Fit      -0.080484
 7901 Fit      -0.077599
 7902 Fit      -0.074634
 7903 Fit      -0.071919
 7904 Fit      -0.069687
 7905 Fit      -0.068095
 7906 Fit      -0.067250
 7907 Fit      -0.067226
 7908 Fit      -0.068078
 7909 Fit      -0.069849
 7910 Fit      -0.072570
 7911 Fit      -0.078081
 7912 Fit      -0.083148
 7913 Fit      -0.081075
 7914 Fit      -0.077819
 7915 Fit      -0.074702
 7916 Fit      -0.071995
 7917 Fit      -0.069874
 7918 Fit      -0.068452
 7919 Fit      -0.067808
 7920 Fit      -0.068001
 7921 Fit      -0.069078
 7922 Fit      -0.071086
 7923 Fit      -0.074072
 7924 Fit      -0.080511
 7925 Fit      -0.085869
 7926 Fit      -0.085268
 7927 Fit      -0.081806
 7928 Fit      -0.078375
 7929 Fit      -0.075280
 7930 Fit      -0.072711
 7931 Fit      -0.070788
 7932 Fit      -0.069589
 7933 Fit      -0.069172
 7934 Fit      -0.069583
 7935 Fit      -0.070869
 7936 Fit      -0.073080
 7937 Fit      -0.076271
 7938 Fit      -0.083602
 7939 Fit      -0.089300
 7940 Fit      -0.087798
 7941 Fit      -0.083988
 7942 Fit      -0.080386
 7943 Fit      -0.077232
 7944 Fit      -0.074676
 7945 Fit      -0.072809
 7946 Fit      -0.071696
 7947 Fit      -0.071385
 7948 Fit      -0.071918
 7949 Fit      -0.073344
 7950 Fit      -0.075718
 7951 Fit      -0.079109
 7952 Fit      -0.087407
 7953 Fit      -0.093527
 7954 Fit      -0.089172
 7955 Fit      -0.085048
 7956 Fit      -0.081429
 7957 Fit      -0.078475
 7958 Fit      -0.076287
 7959 Fit      -0.074933
 7960 Fit      -0.074463
 7961 Fit      -0.074925
 7962 Fit      -0.076373
 7963 Fit      -0.078873
 7964 Fit      -0.082514
 7965 Fit      -0.091984
 7966 Fit      -0.096961
 7967 Fit      -0.092028
 7968 Fit      -0.087634
 7969 Fit      -0.083984
 7970 Fit      -0.081203
 7971 Fit      -0.079372
 7972 Fit      -0.078550
 7973 Fit      -0.078792
 7974 Fit      -0.080160
 7975 Fit      -0.082736
 7976 Fit      -0.086628
 7977 Fit      -0.095287
 7978 Fit      -0.090859
 7979 Fit      -0.087410
 7980 Fit      -0.085031
 7981 Fit      -0.083790
 7982 Fit      -0.083748
 7983 Fit      -0.084976
 7984 Fit      -0.087566
 7985 Fit      -0.091646
 7986 Fit      -0.097056
 7987 Fit      -0.093223
 7988 Fit      -0.090815
 7989 Fit      -0.089915
 7990 Fit      -0.090611
 7991 Fit      -0.093018
 7992 Fit      -0.097946
 7993 Fit      -0.136961
 7994 Fit      -0.131418
 7995 Fit      -0.128112
 7996 Fit      -0.126513
 7997 Fit      -0.126314
 7998 Fit      -0.127333
 7999 Fit      -0.129441
 8000 Fit      -0.132503
 8001 Fit      -0.136333
 8002 Fit      -0.140639
 8003 Fit      -0.144961
 8004 Fit      -0.148607
 8005 Fit      -0.130968
 8006 Fit      -0.126194
 8007 Fit      -0.123409
 8008 Fit      -0.122223
 8009 Fit      -0.122380
 8010 Fit      -0.123698
 8011 Fit      -0.126016
 8012 Fit      -0.129137
 8013 Fit      -0.132776
 8014 Fit      -0.136497
 8015 Fit      -0.139647
 8016 Fit      -0.141281
 8017 Fit      -0.130636
 8018 Fit      -0.124829
 8019 Fit      -0.121211
 8020 Fit      -0.119422
 8021 Fit      -0.119173
 8022 Fit      -0.120220
 8023 Fit      -0.122323
 8024 Fit      -0.125174
 8025 Fit      -0.128316
 8026 Fit      -0.131057
 8027 Fit      -0.132355
 8028 Fit      -0.124346
 8029 Fit      -0.120083
 8030 Fit      -0.117696
 8031 Fit      -0.116978
 8032 Fit      -0.117656
 8033 Fit      -0.119390
 8034 Fit      -0.121698
 8035 Fit      -0.123859
 8036 Fit      -0.124801
 8037 Fit      -0.123651
 8038 Fit      -0.119265
 8039 Fit      -0.116551
 8040 Fit      -0.115606
 8041 Fit      -0.116132
 8042 Fit      -0.117533
 8043 Fit      -0.118862
 8044 Fit      -0.122134
 8045 Fit      -0.118457
 8046 Fit      -0.115666
 8047 Fit      -0.114751
 8048 Fit      -0.115169
 8049 Fit      -0.115301
 8050 Fit      -0.124055
 8051 Fit      -0.117389
 8052 Fit      -0.115068
 8053 Fit      -0.114004
 8054 Fit      -0.114361
 8055 Fit      -0.132751
 8056 Fit      -0.144246
 8057 Fit      -0.156724
 8058 Fit      -0.170210
 8059 Fit      -0.184235
 8060 Fit      -0.127377
 8061 Fit      -0.137366
 8062 Fit      -0.148452
 8063 Fit      -0.160450
 8064 Fit      -0.172883
 8065 Fit      -0.184848
 8066 Fit      -0.126352
 8067 Fit      -0.115207
 8068 Fit      -0.120834
 8069 Fit      -0.128714
 8070 Fit      -0.138235
 8071 Fit      -0.148937
 8072 Fit      -0.160242
 8073 Fit      -0.171241
 8074 Fit      -0.180690
 8075 Fit      -0.187326
 8076 Fit      -0.134953
 8077 Fit      -0.129070
 8078 Fit      -0.123198
 8079 Fit      -0.118700
 8080 Fit      -0.116935
 8081 Fit      -0.118521
 8082 Fit      -0.123230
 8083 Fit      -0.130407
 8084 Fit      -0.139328
 8085 Fit      -0.149210
 8086 Fit      -0.159047
 8087 Fit      -0.167573
 8088 Fit      -0.173553
 8089 Fit      -0.131961
 8090 Fit      -0.126788
 8091 Fit      -0.122676
 8092 Fit      -0.120981
 8093 Fit      -0.122607
 8094 Fit      -0.127513
 8095 Fit      -0.134938
 8096 Fit      -0.143718
 8097 Fit      -0.152376
 8098 Fit      -0.159274
 8099 Fit      -0.163159
 8100 Fit      -0.137268
 8101 Fit      -0.131377
 8102 Fit      -0.126925
 8103 Fit      -0.125349
 8104 Fit      -0.128015
 8105 Fit      -0.134512
 8106 Fit      -0.142710
 8107 Fit      -0.149639
 8108 Fit      -0.152902
 8109 Fit      -0.152040
 8110 Fit      -0.142823
 8111 Fit      -0.136990
 8112 Fit      -0.132932
 8113 Fit      -0.130449
 8114 Fit      -0.135007
 8115 Fit      -0.142061
 8116 Fit      -0.143663
 8117 Fit      -0.139079
 8118 Fit      -0.136502
 8119 Fit      -0.143978
 8120 Fit      -0.137034
 8121 Fit      -0.144301
 8122 Fit      -0.151878
 8123 Fit      -0.152524
 8124 Fit      -0.145255
 8125 Fit      -0.137397
 8126 Fit      -0.131408
 8127 Fit      -0.137675
 8128 Fit      -0.146257
 8129 Fit      -0.161250
 8130 Fit      -0.164313
 8131 Fit      -0.162974
 8132 Fit      -0.157089
 8133 Fit      -0.148127
 8134 Fit      -0.138860
 8135 Fit      -0.132004
 8136 Fit      -0.129312
 8137 Fit      -0.126810
 8138 Fit      -0.132749
 8139 Fit      -0.177449
 8140 Fit      -0.175660
 8141 Fit      -0.170504
 8142 Fit      -0.162413
 8143 Fit      -0.152611
 8144 Fit      -0.142692
 8145 Fit      -0.134060
 8146 Fit      -0.127685
 8147 Fit      -0.124170
 8148 Fit      -0.123851
 8149 Fit      -0.122912
 8150 Fit      -0.129052
 8151 Fit      -0.192211
 8152 Fit      -0.188885
 8153 Fit      -0.182440
 8154 Fit      -0.173287
 8155 Fit      -0.162469
 8156 Fit      -0.151299
 8157 Fit      -0.140911
 8158 Fit      -0.132077
 8159 Fit      -0.125261
 8160 Fit      -0.120752
 8161 Fit      -0.118757
 8162 Fit      -0.119446
 8163 Fit      -0.119303
 8164 Fit      -0.207203
 8165 Fit      -0.200783
 8166 Fit      -0.191184
 8167 Fit      -0.179292
 8168 Fit      -0.166445
 8169 Fit      -0.153901
 8170 Fit      -0.142534
 8171 Fit      -0.132829
 8172 Fit      -0.125030
 8173 Fit      -0.119271
 8174 Fit      -0.115666
 8175 Fit      -0.114354
 8176 Fit      -0.115505
 8177 Fit      -0.228834
 8178 Fit      -0.222684
 8179 Fit      -0.212826
 8180 Fit      -0.199952
 8181 Fit      -0.185469
 8182 Fit      -0.170857
 8183 Fit      -0.157182
 8184 Fit      -0.145022
 8185 Fit      -0.134610
 8186 Fit      -0.126008
 8187 Fit      -0.119232
 8188 Fit      -0.114312
 8189 Fit      -0.111315
 8190 Fit      -0.110359
 8191 Fit      -0.111635
 8192 Fit      -0.247384
 8193 Fit      -0.236387
 8194 Fit      -0.221206
 8195 Fit      -0.203740
 8196 Fit      -0.186065
 8197 Fit      -0.169590
 8198 Fit      -0.154970
 8199 Fit      -0.142371
 8200 Fit      -0.131739
 8201 Fit      -0.122979
 8202 Fit      -0.116036
 8203 Fit      -0.110914
 8204 Fit      -0.107655
 8205 Fit      -0.167092
 8206 Fit      -0.152339
 8207 Fit      -0.139753
 8208 Fit      -0.129096
 8209 Fit      -0.120210
 8210 Fit      -0.153010
 -----------------------------------------------------------------
 Leave Link  602 at Tue Aug 25 13:36:13 2015, MaxMem=   33554432 cpu:       3.1

 Test job not archived.
 1\1\GINC-NID03934\SP\RHF\6-31G(d)\C6H11O9P1(2-)\NMIH\25-Aug-2015\0\\#H
 F/6-31G* Test Pop=MK iop(6/33=2) iop(6/42=6)\\F6P_ideal.pdb\\-2,1\C,0,
 4.362,1.044,-0.786\C,0,3.817,-0.095,0.037\C,0,2.534,-0.773,-0.37\C,0,1
 .349,0.132,-0.027\C,0,0.041,-0.605,-0.324\C,0,-1.144,0.299,0.019\O,0,5
 .577,1.515,-0.201\O,0,4.409,-0.465,1.023\O,0,2.406,-2.011,0.332\O,0,1.
 397,0.475,1.36\O,0,-0.007,-0.949,-1.71\O,0,-2.362,-0.428,-0.148\P,0,-3
 .812,0.215,0.127\O,0,-4.085,1.396,-0.933\O,0,-4.942,-0.921,-0.034\O,0,
 -3.856,0.764,1.5\H,0,4.557,0.698,-1.801\H,0,3.633,1.854,-0.812\H,0,2.5
 48,-0.962,-1.443\H,0,1.399,1.04,-0.628\H,0,-0.008,-1.513,0.277\H,0,-1.
 059,0.633,1.053\H,0,-1.144,1.165,-0.643\H,0,5.985,2.25,-0.68\H,0,2.387
 ,-1.918,1.294\H,0,1.357,-0.285,1.955\H,0,0.033,-0.188,-2.306\\Version=
 AM64L-G09RevC.01\State=1-A\HF=-1247.9459933\RMSD=5.971e-09\Dipole=14.9
 546378,0.12447,-1.4450187\Quadrupole=-98.9857827,45.9082386,53.0775441
 ,15.0778186,-10.7633232,-8.0856988\PG=C01 [X(C6H11O9P1)]\\@


 YOU KNOW YOU'RE A TEACHER WHEN YOU SAY 2, WRITE 3, AND MEAN 4.
 -- RONALD ANSTROM, HIGH SCHOOL TEACHER, UNDERWOOD, N.D. 1974
 Job cpu time:  0 days  0 hours  2 minutes 55.8 seconds.
 File lengths (MBytes):  RWF=     43 Int=      0 D2E=      0 Chk=      4 Scr=      1
 Normal termination of Gaussian 09 at Tue Aug 25 13:36:20 2015.
