 Entering Gaussian System, Link 0=g09
 Input=13DPG_H4.gau
 Output=13DPG_H4.log
 Initial command:
 /usr/common/usg/g09/c1/g09/l1.exe /scratch/scratchdirs/nmih/Gau-30481.inp -scrdir=/scratch/scratchdirs/nmih/
 Entering Link 1 = /usr/common/usg/g09/c1/g09/l1.exe PID=     30482.
  
 Copyright (c) 1988,1990,1992,1993,1995,1998,2003,2009,2011,
            Gaussian, Inc.  All Rights Reserved.
  
 This is part of the Gaussian(R) 09 program.  It is based on
 the Gaussian(R) 03 system (copyright 2003, Gaussian, Inc.),
 the Gaussian(R) 98 system (copyright 1998, Gaussian, Inc.),
 the Gaussian(R) 94 system (copyright 1995, Gaussian, Inc.),
 the Gaussian 92(TM) system (copyright 1992, Gaussian, Inc.),
 the Gaussian 90(TM) system (copyright 1990, Gaussian, Inc.),
 the Gaussian 88(TM) system (copyright 1988, Gaussian, Inc.),
 the Gaussian 86(TM) system (copyright 1986, Carnegie Mellon
 University), and the Gaussian 82(TM) system (copyright 1983,
 Carnegie Mellon University). Gaussian is a federally registered
 trademark of Gaussian, Inc.
  
 This software contains proprietary and confidential information,
 including trade secrets, belonging to Gaussian, Inc.
  
 This software is provided under written license and may be
 used, copied, transmitted, or stored only in accord with that
 written license.
  
 The following legend is applicable only to US Government
 contracts under FAR:
  
                    RESTRICTED RIGHTS LEGEND
  
 Use, reproduction and disclosure by the US Government is
 subject to restrictions as set forth in subparagraphs (a)
 and (c) of the Commercial Computer Software - Restricted
 Rights clause in FAR 52.227-19.
  
 Gaussian, Inc.
 340 Quinnipiac St., Bldg. 40, Wallingford CT 06492
  
  
 ---------------------------------------------------------------
 Warning -- This program may not be used in any manner that
 competes with the business of Gaussian, Inc. or will provide
 assistance to any competitor of Gaussian, Inc.  The licensee
 of this program is prohibited from giving any competitor of
 Gaussian, Inc. access to this program.  By using this program,
 the user acknowledges that Gaussian, Inc. is engaged in the
 business of creating and licensing software in the field of
 computational chemistry and represents and warrants to the
 licensee that it is not a competitor of Gaussian, Inc. and that
 it will not use this program in any manner prohibited above.
 ---------------------------------------------------------------
  

 Cite this work as:
 Gaussian 09, Revision C.01,
 M. J. Frisch, G. W. Trucks, H. B. Schlegel, G. E. Scuseria, 
 M. A. Robb, J. R. Cheeseman, G. Scalmani, V. Barone, B. Mennucci, 
 G. A. Petersson, H. Nakatsuji, M. Caricato, X. Li, H. P. Hratchian, 
 A. F. Izmaylov, J. Bloino, G. Zheng, J. L. Sonnenberg, M. Hada, 
 M. Ehara, K. Toyota, R. Fukuda, J. Hasegawa, M. Ishida, T. Nakajima, 
 Y. Honda, O. Kitao, H. Nakai, T. Vreven, J. A. Montgomery, Jr., 
 J. E. Peralta, F. Ogliaro, M. Bearpark, J. J. Heyd, E. Brothers, 
 K. N. Kudin, V. N. Staroverov, T. Keith, R. Kobayashi, J. Normand, 
 K. Raghavachari, A. Rendell, J. C. Burant, S. S. Iyengar, J. Tomasi, 
 M. Cossi, N. Rega, J. M. Millam, M. Klene, J. E. Knox, J. B. Cross, 
 V. Bakken, C. Adamo, J. Jaramillo, R. Gomperts, R. E. Stratmann, 
 O. Yazyev, A. J. Austin, R. Cammi, C. Pomelli, J. W. Ochterski, 
 R. L. Martin, K. Morokuma, V. G. Zakrzewski, G. A. Voth, 
 P. Salvador, J. J. Dannenberg, S. Dapprich, A. D. Daniels, 
 O. Farkas, J. B. Foresman, J. V. Ortiz, J. Cioslowski, 
 and D. J. Fox, Gaussian, Inc., Wallingford CT, 2010.
 
 ******************************************
 Gaussian 09:  AM64L-G09RevC.01 23-Sep-2011
                24-Aug-2015 
 ******************************************
 %chk=13DPG_H4.chk
 ------------------------------------------------------------
 #HF/6-31G* SCF=tight Test Pop=MK iop(6/33=2) iop(6/42=6) opt
 ------------------------------------------------------------
 1/18=20,19=15,38=1/1,3;
 2/9=110,12=2,17=6,18=5,40=1/2;
 3/5=1,6=6,7=1,11=9,16=1,25=1,30=1,71=1/1,2,3;
 4//1;
 5/5=2,32=2,38=5/2;
 6/7=2,8=2,9=2,10=2,15=8,20=1,28=1,33=2,42=6/1,2;
 7//1,2,3,16;
 1/18=20,19=15/3(2);
 2/9=110/2;
 99//99;
 2/9=110/2;
 3/5=1,6=6,7=1,11=9,16=1,25=1,30=1,71=1/1,2,3;
 4/5=5,16=3/1;
 5/5=2,32=2,38=5/2;
 7//1,2,3,16;
 1/18=20,19=15/3(-5);
 2/9=110/2;
 6/7=2,8=2,9=2,10=2,15=8,19=2,20=1,28=1,33=2,42=6/1,2;
 99/9=1/99;
 ---------
 13DPG.pdb
 ---------
 Charge = -4 Multiplicity = 1
 Symbolic Z-Matrix:
 O                     3.833     2.065     0.392 
 P                     3.392     0.574    -0.023 
 O                     3.453     0.433    -1.496 
 O                     4.388    -0.491     0.659 
 O                     1.887     0.299     0.48 
 C                     1.328    -0.867     0.122 
 O                     1.952    -1.656    -0.548 
 C                    -0.078    -1.194     0.557 
 O                    -0.403    -2.526     0.155 
 C                    -1.054    -0.212    -0.094 
 O                    -2.371    -0.447     0.407 
 P                    -3.653     0.407    -0.063 
 O                    -4.982    -0.212     0.602 
 O                    -3.48      1.937     0.407 
 O                    -3.768     0.353    -1.537 
 H                    -0.151    -1.113     1.641 
 H                    -0.359    -2.671    -0.8 
 H                    -0.752     0.809     0.14 
 H                    -1.046    -0.354    -1.175 
 

 GradGradGradGradGradGradGradGradGradGradGradGradGradGradGradGradGradGrad
 Berny optimization.
 Initialization pass.
                           ----------------------------
                           !    Initial Parameters    !
                           ! (Angstroms and Degrees)  !
 --------------------------                            --------------------------
 ! Name  Definition              Value          Derivative Info.                !
 --------------------------------------------------------------------------------
 ! R1    R(1,2)                  1.6093         estimate D2E/DX2                !
 ! R2    R(2,3)                  1.481          estimate D2E/DX2                !
 ! R3    R(2,4)                  1.6098         estimate D2E/DX2                !
 ! R4    R(2,5)                  1.6105         estimate D2E/DX2                !
 ! R5    R(5,6)                  1.3417         estimate D2E/DX2                !
 ! R6    R(6,7)                  1.2086         estimate D2E/DX2                !
 ! R7    R(6,8)                  1.5076         estimate D2E/DX2                !
 ! R8    R(8,9)                  1.4288         estimate D2E/DX2                !
 ! R9    R(8,10)                 1.5299         estimate D2E/DX2                !
 ! R10   R(8,16)                 1.0895         estimate D2E/DX2                !
 ! R11   R(9,17)                 0.9669         estimate D2E/DX2                !
 ! R12   R(10,11)                1.4285         estimate D2E/DX2                !
 ! R13   R(10,18)                1.0901         estimate D2E/DX2                !
 ! R14   R(10,19)                1.0903         estimate D2E/DX2                !
 ! R15   R(11,12)                1.6105         estimate D2E/DX2                !
 ! R16   R(12,13)                1.6099         estimate D2E/DX2                !
 ! R17   R(12,14)                1.6099         estimate D2E/DX2                !
 ! R18   R(12,15)                1.4795         estimate D2E/DX2                !
 ! A1    A(1,2,3)              109.4759         estimate D2E/DX2                !
 ! A2    A(1,2,4)              109.521          estimate D2E/DX2                !
 ! A3    A(1,2,5)              109.4965         estimate D2E/DX2                !
 ! A4    A(3,2,4)              109.4452         estimate D2E/DX2                !
 ! A5    A(3,2,5)              109.4435         estimate D2E/DX2                !
 ! A6    A(4,2,5)              109.4452         estimate D2E/DX2                !
 ! A7    A(2,5,6)              117.0263         estimate D2E/DX2                !
 ! A8    A(5,6,7)              120.008          estimate D2E/DX2                !
 ! A9    A(5,6,8)              120.003          estimate D2E/DX2                !
 ! A10   A(7,6,8)              119.989          estimate D2E/DX2                !
 ! A11   A(6,8,9)              109.4601         estimate D2E/DX2                !
 ! A12   A(6,8,10)             109.4473         estimate D2E/DX2                !
 ! A13   A(6,8,16)             109.4779         estimate D2E/DX2                !
 ! A14   A(9,8,10)             109.4842         estimate D2E/DX2                !
 ! A15   A(9,8,16)             109.5126         estimate D2E/DX2                !
 ! A16   A(10,8,16)            109.4453         estimate D2E/DX2                !
 ! A17   A(8,9,17)             114.037          estimate D2E/DX2                !
 ! A18   A(8,10,11)            109.4698         estimate D2E/DX2                !
 ! A19   A(8,10,18)            109.4563         estimate D2E/DX2                !
 ! A20   A(8,10,19)            109.4873         estimate D2E/DX2                !
 ! A21   A(11,10,18)           109.5233         estimate D2E/DX2                !
 ! A22   A(11,10,19)           109.4541         estimate D2E/DX2                !
 ! A23   A(18,10,19)           109.4365         estimate D2E/DX2                !
 ! A24   A(10,11,12)           122.9762         estimate D2E/DX2                !
 ! A25   A(11,12,13)           109.4331         estimate D2E/DX2                !
 ! A26   A(11,12,14)           109.4639         estimate D2E/DX2                !
 ! A27   A(11,12,15)           109.4677         estimate D2E/DX2                !
 ! A28   A(13,12,14)           109.484          estimate D2E/DX2                !
 ! A29   A(13,12,15)           109.4723         estimate D2E/DX2                !
 ! A30   A(14,12,15)           109.5062         estimate D2E/DX2                !
 ! D1    D(1,2,5,6)            174.9694         estimate D2E/DX2                !
 ! D2    D(3,2,5,6)             54.9652         estimate D2E/DX2                !
 ! D3    D(4,2,5,6)            -64.9701         estimate D2E/DX2                !
 ! D4    D(2,5,6,7)              0.0461         estimate D2E/DX2                !
 ! D5    D(2,5,6,8)            179.9641         estimate D2E/DX2                !
 ! D6    D(5,6,8,9)           -174.9944         estimate D2E/DX2                !
 ! D7    D(5,6,8,10)            65.0111         estimate D2E/DX2                !
 ! D8    D(5,6,8,16)           -54.9465         estimate D2E/DX2                !
 ! D9    D(7,6,8,9)              4.9236         estimate D2E/DX2                !
 ! D10   D(7,6,8,10)          -115.0708         estimate D2E/DX2                !
 ! D11   D(7,6,8,16)           124.9715         estimate D2E/DX2                !
 ! D12   D(6,8,9,17)           -59.9983         estimate D2E/DX2                !
 ! D13   D(10,8,9,17)           59.9736         estimate D2E/DX2                !
 ! D14   D(16,8,9,17)          179.9751         estimate D2E/DX2                !
 ! D15   D(6,8,10,11)         -175.0154         estimate D2E/DX2                !
 ! D16   D(6,8,10,18)          -54.9616         estimate D2E/DX2                !
 ! D17   D(6,8,10,19)           64.9966         estimate D2E/DX2                !
 ! D18   D(9,8,10,11)           65.0049         estimate D2E/DX2                !
 ! D19   D(9,8,10,18)         -174.9414         estimate D2E/DX2                !
 ! D20   D(9,8,10,19)          -54.9831         estimate D2E/DX2                !
 ! D21   D(16,8,10,11)         -55.0378         estimate D2E/DX2                !
 ! D22   D(16,8,10,18)          65.016          estimate D2E/DX2                !
 ! D23   D(16,8,10,19)        -175.0258         estimate D2E/DX2                !
 ! D24   D(8,10,11,12)        -179.9904         estimate D2E/DX2                !
 ! D25   D(18,10,11,12)         59.9969         estimate D2E/DX2                !
 ! D26   D(19,10,11,12)        -59.9821         estimate D2E/DX2                !
 ! D27   D(10,11,12,13)        175.0215         estimate D2E/DX2                !
 ! D28   D(10,11,12,14)        -64.9906         estimate D2E/DX2                !
 ! D29   D(10,11,12,15)         55.0456         estimate D2E/DX2                !
 --------------------------------------------------------------------------------
 Trust Radius=3.00D-01 FncErr=1.00D-07 GrdErr=1.00D-07
 Number of steps in this run=     87 maximum allowed number of steps=    114.
 GradGradGradGradGradGradGradGradGradGradGradGradGradGradGradGradGradGrad

                          Input orientation:                          
 ---------------------------------------------------------------------
 Center     Atomic      Atomic             Coordinates (Angstroms)
 Number     Number       Type             X           Y           Z
 ---------------------------------------------------------------------
      1          8           0        3.833000    2.065000    0.392000
      2         15           0        3.392000    0.574000   -0.023000
      3          8           0        3.453000    0.433000   -1.496000
      4          8           0        4.388000   -0.491000    0.659000
      5          8           0        1.887000    0.299000    0.480000
      6          6           0        1.328000   -0.867000    0.122000
      7          8           0        1.952000   -1.656000   -0.548000
      8          6           0       -0.078000   -1.194000    0.557000
      9          8           0       -0.403000   -2.526000    0.155000
     10          6           0       -1.054000   -0.212000   -0.094000
     11          8           0       -2.371000   -0.447000    0.407000
     12         15           0       -3.653000    0.407000   -0.063000
     13          8           0       -4.982000   -0.212000    0.602000
     14          8           0       -3.480000    1.937000    0.407000
     15          8           0       -3.768000    0.353000   -1.537000
     16          1           0       -0.151000   -1.113000    1.641000
     17          1           0       -0.359000   -2.671000   -0.800000
     18          1           0       -0.752000    0.809000    0.140000
     19          1           0       -1.046000   -0.354000   -1.175000
 ---------------------------------------------------------------------
                    Distance matrix (angstroms):
                    1          2          3          4          5
     1  O    0.000000
     2  P    1.609282   0.000000
     3  O    2.524355   1.480990   0.000000
     4  O    2.629154   1.609772   2.524287   0.000000
     5  O    2.629338   1.610484   2.524854   2.628905   0.000000
     6  C    3.865818   2.521429   2.970446   3.129432   1.341716
     7  O    4.274062   2.705943   2.741464   2.957731   2.209759
     8  C    5.093548   3.937401   4.396578   4.522142   2.469049
     9  O    6.251172   4.903438   5.133246   5.229620   3.651075
    10  C    5.413289   4.515501   4.763893   5.500928   3.039750
    11  O    6.693279   5.868519   6.189894   6.763839   4.323472
    12  P    7.680897   7.047093   7.249097   8.123138   5.567595
    13  O    9.106759   8.433997   8.715897   9.374326   6.889061
    14  O    7.314135   7.019049   7.345061   8.237968   5.611868
    15  O    8.026655   7.321655   7.221560   8.488527   6.004184
    16  H    5.247089   4.262360   5.021922   4.685481   2.737720
    17  H    6.436103   5.020334   4.964935   5.423568   3.937489
    18  H    4.760595   4.153857   4.527681   5.327191   2.709247
    19  H    5.666718   4.678048   4.578582   5.736783   3.430441
                    6          7          8          9         10
     6  C    0.000000
     7  O    1.208634   0.000000
     8  C    1.507644   2.356983   0.000000
     9  O    2.397860   2.607131   1.428794   0.000000
    10  C    2.479840   3.365604   1.529935   2.416692   0.000000
    11  O    3.733661   4.589339   2.416269   2.873807   1.428536
    12  P    5.144673   5.992263   3.965883   4.383208   2.671876
    13  O    6.362038   7.175513   5.001556   5.149917   3.989185
    14  O    5.573195   6.582423   4.625934   5.426767   3.279433
    15  O    5.496353   6.142687   4.515988   4.740752   3.125263
    16  H    2.134319   3.083696   1.089471   2.065979   2.153470
    17  H    2.636374   2.536622   2.025324   0.966947   2.651064
    18  H    2.671273   3.723061   2.154106   3.353245   1.090138
    19  H    2.753408   3.328113   2.154634   2.626772   1.090316
                   11         12         13         14         15
    11  O    0.000000
    12  P    1.610509   0.000000
    13  O    2.628796   1.609853   0.000000
    14  O    2.629323   1.609885   2.629112   0.000000
    15  O    2.524033   1.479465   2.523557   2.524111   0.000000
    16  H    2.625778   4.180672   5.022936   4.680545   5.033044
    17  H    3.232827   4.568117   5.420739   5.694836   4.616170
    18  H    2.066394   2.935748   4.375932   2.964061   3.480879
    19  H    2.065671   2.934640   4.320878   3.698075   2.835521
                   16         17         18         19
    16  H    0.000000
    17  H    2.903293   0.000000
    18  H    2.511630   3.626079   0.000000
    19  H    3.050731   2.445625   1.779952   0.000000
 Stoichiometry    C3H4O10P2(4-)
 Framework group  C1[X(C3H4O10P2)]
 Deg. of freedom    51
 Full point group                 C1      NOp   1
 Largest Abelian subgroup         C1      NOp   1
 Largest concise Abelian subgroup C1      NOp   1
                         Standard orientation:                         
 ---------------------------------------------------------------------
 Center     Atomic      Atomic             Coordinates (Angstroms)
 Number     Number       Type             X           Y           Z
 ---------------------------------------------------------------------
      1          8           0        3.840319   -2.094076   -0.420673
      2         15           0        3.399363   -0.606093    0.005061
      3          8           0        3.460317   -0.475729    1.479043
      4          8           0        4.395427    0.463763   -0.669201
      5          8           0        1.894391   -0.327411   -0.495992
      6          6           0        1.335423    0.835996   -0.129606
      7          8           0        1.959431    1.620116    0.546092
      8          6           0       -0.070549    1.166182   -0.562283
      9          8           0       -0.395511    2.495259   -0.150691
     10          6           0       -1.046609    0.179547    0.081580
     11          8           0       -2.363583    0.418208   -0.417756
     12         15           0       -3.645632   -0.439112    0.046025
     13          8           0       -4.974585    0.184723   -0.614536
     14          8           0       -3.472675   -1.965687   -0.434999
     15          8           0       -3.760681   -0.395746    1.520372
     16          1           0       -0.143515    1.093010   -1.646841
     17          1           0       -0.351539    2.633361    0.805332
     18          1           0       -0.744641   -0.839749   -0.159772
     19          1           0       -1.038641    0.313742    1.163577
 ---------------------------------------------------------------------
 Rotational constants (GHZ):      1.1197807      0.1885894      0.1738187
 Standard basis: 6-31G(d) (6D, 7F)
 There are   241 symmetry adapted basis functions of A   symmetry.
 Integral buffers will be    131072 words long.
 Raffenetti 1 integral format.
 Two-electron integral symmetry is turned on.
   241 basis functions,   484 primitive gaussians,   241 cartesian basis functions
    68 alpha electrons       68 beta electrons
       nuclear repulsion energy      1308.4690364431 Hartrees.
 NAtoms=   19 NActive=   19 NUniq=   19 SFac= 1.00D+00 NAtFMM=   60 NAOKFM=F Big=F
 One-electron integrals computed using PRISM.
 NBasis=   241 RedAO= T  NBF=   241
 NBsUse=   241 1.00D-06 NBFU=   241
 Harris functional with IExCor=  205 diagonalized for initial guess.
 ExpMin= 9.98D-02 ExpMax= 1.94D+04 ExpMxC= 2.91D+03 IAcc=2 IRadAn=         4 AccDes= 0.00D+00
 HarFok:  IExCor=  205 AccDes= 0.00D+00 IRadAn=         4 IDoV= 1
 ScaDFX=  1.000000  1.000000  1.000000  1.000000
 FoFCou: FMM=F IPFlag=           0 FMFlag=      100000 FMFlg1=           0
         NFxFlg=           0 DoJE=T BraDBF=F KetDBF=T FulRan=T
         Omega=  0.000000  0.000000  1.000000  0.000000  0.000000 ICntrl=     500 IOpCl=  0
         NMat0=    1 NMatS0=    1 NMatT0=    0 NMatD0=    1 NMtDS0=    0 NMtDT0=    0
         I1Cent=           4 NGrid=           0.
 Petite list used in FoFCou.
 Initial guess orbital symmetries:
       Occupied  (A) (A) (A) (A) (A) (A) (A) (A) (A) (A) (A) (A)
                 (A) (A) (A) (A) (A) (A) (A) (A) (A) (A) (A) (A)
                 (A) (A) (A) (A) (A) (A) (A) (A) (A) (A) (A) (A)
                 (A) (A) (A) (A) (A) (A) (A) (A) (A) (A) (A) (A)
                 (A) (A) (A) (A) (A) (A) (A) (A) (A) (A) (A) (A)
                 (A) (A) (A) (A) (A) (A) (A) (A)
       Virtual   (A) (A) (A) (A) (A) (A) (A) (A) (A) (A) (A) (A)
                 (A) (A) (A) (A) (A) (A) (A) (A) (A) (A) (A) (A)
                 (A) (A) (A) (A) (A) (A) (A) (A) (A) (A) (A) (A)
                 (A) (A) (A) (A) (A) (A) (A) (A) (A) (A) (A) (A)
                 (A) (A) (A) (A) (A) (A) (A) (A) (A) (A) (A) (A)
                 (A) (A) (A) (A) (A) (A) (A) (A) (A) (A) (A) (A)
                 (A) (A) (A) (A) (A) (A) (A) (A) (A) (A) (A) (A)
                 (A) (A) (A) (A) (A) (A) (A) (A) (A) (A) (A) (A)
                 (A) (A) (A) (A) (A) (A) (A) (A) (A) (A) (A) (A)
                 (A) (A) (A) (A) (A) (A) (A) (A) (A) (A) (A) (A)
                 (A) (A) (A) (A) (A) (A) (A) (A) (A) (A) (A) (A)
                 (A) (A) (A) (A) (A) (A) (A) (A) (A) (A) (A) (A)
                 (A) (A) (A) (A) (A) (A) (A) (A) (A) (A) (A) (A)
                 (A) (A) (A) (A) (A) (A) (A) (A) (A) (A) (A) (A)
                 (A) (A) (A) (A) (A)
 The electronic state of the initial guess is 1-A.
 Requested convergence on RMS density matrix=1.00D-08 within 128 cycles.
 Requested convergence on MAX density matrix=1.00D-06.
 Requested convergence on             energy=1.00D-06.
 No special actions if energy rises.
 Integral accuracy reduced to 1.0D-05 until final iterations.
 Initial convergence to 1.0D-05 achieved.  Increase integral accuracy.
 SCF Done:  E(RHF) =  -1545.58654396     A.U. after   15 cycles
             Convg  =    0.9212D-08             -V/T =  2.0018

 **********************************************************************

            Population analysis using the SCF density.

 **********************************************************************

 Orbital symmetries:
 BldTbl:  Degeneracy threshold= 1.00D-02
       Occupied  (A) (A) (A) (A) (A) (A) (A) (A) (A) (A) (A) (A)
                 (A) (A) (A) (A) (A) (A) (A) (A) (A) (A) (A) (A)
                 (A) (A) (A) (A) (A) (A) (A) (A) (A) (A) (A) (A)
                 (A) (A) (A) (A) (A) (A) (A) (A) (A) (A) (A) (A)
                 (A) (A) (A) (A) (A) (A) (A) (A) (A) (A) (A) (A)
                 (A) (A) (A) (A) (A) (A) (A) (A)
       Virtual   (A) (A) (A) (A) (A) (A) (A) (A) (A) (A) (A) (A)
                 (A) (A) (A) (A) (A) (A) (A) (A) (A) (A) (A) (A)
                 (A) (A) (A) (A) (A) (A) (A) (A) (A) (A) (A) (A)
                 (A) (A) (A) (A) (A) (A) (A) (A) (A) (A) (A) (A)
                 (A) (A) (A) (A) (A) (A) (A) (A) (A) (A) (A) (A)
                 (A) (A) (A) (A) (A) (A) (A) (A) (A) (A) (A) (A)
                 (A) (A) (A) (A) (A) (A) (A) (A) (A) (A) (A) (A)
                 (A) (A) (A) (A) (A) (A) (A) (A) (A) (A) (A) (A)
                 (A) (A) (A) (A) (A) (A) (A) (A) (A) (A) (A) (A)
                 (A) (A) (A) (A) (A) (A) (A) (A) (A) (A) (A) (A)
                 (A) (A) (A) (A) (A) (A) (A) (A) (A) (A) (A) (A)
                 (A) (A) (A) (A) (A) (A) (A) (A) (A) (A) (A) (A)
                 (A) (A) (A) (A) (A) (A) (A) (A) (A) (A) (A) (A)
                 (A) (A) (A) (A) (A) (A) (A) (A) (A) (A) (A) (A)
                 (A) (A) (A) (A) (A)
 The electronic state is 1-A.
 Alpha  occ. eigenvalues --  -79.50641 -79.49588 -20.15371 -20.13127 -20.09628
 Alpha  occ. eigenvalues --  -20.07664 -19.92659 -19.92548 -19.92194 -19.92034
 Alpha  occ. eigenvalues --  -19.91822 -19.91129 -10.93349 -10.87465 -10.83661
 Alpha  occ. eigenvalues --   -7.02640  -7.01507  -4.92662  -4.92383  -4.92279
 Alpha  occ. eigenvalues --   -4.91501  -4.91295  -4.91186  -1.00707  -0.94782
 Alpha  occ. eigenvalues --   -0.89513  -0.88725  -0.74170  -0.73784  -0.65519
 Alpha  occ. eigenvalues --   -0.65165  -0.63418  -0.62747  -0.59831  -0.44659
 Alpha  occ. eigenvalues --   -0.37901  -0.29677  -0.25315  -0.23625  -0.22409
 Alpha  occ. eigenvalues --   -0.21387  -0.17541  -0.14087  -0.13910  -0.10845
 Alpha  occ. eigenvalues --   -0.08279  -0.07037  -0.05432  -0.03308  -0.02539
 Alpha  occ. eigenvalues --   -0.01493  -0.00133   0.01555   0.02130   0.02864
 Alpha  occ. eigenvalues --    0.04266   0.08329   0.08790   0.11204   0.11539
 Alpha  occ. eigenvalues --    0.11581   0.11770   0.14683   0.14930   0.15599
 Alpha  occ. eigenvalues --    0.16307   0.18214   0.18581
 Alpha virt. eigenvalues --    0.62070   0.63595   0.69521   0.72580   0.76609
 Alpha virt. eigenvalues --    0.77743   0.80502   0.82145   0.84843   0.86710
 Alpha virt. eigenvalues --    0.87901   0.88237   0.88990   0.90664   0.93655
 Alpha virt. eigenvalues --    0.94303   0.95170   0.98376   1.03556   1.07926
 Alpha virt. eigenvalues --    1.09136   1.11695   1.12375   1.13427   1.14976
 Alpha virt. eigenvalues --    1.17089   1.17470   1.23201   1.25137   1.26027
 Alpha virt. eigenvalues --    1.27560   1.33701   1.35551   1.38311   1.41499
 Alpha virt. eigenvalues --    1.43018   1.48209   1.49738   1.50162   1.51700
 Alpha virt. eigenvalues --    1.54549   1.54966   1.55685   1.56232   1.60528
 Alpha virt. eigenvalues --    1.61141   1.61414   1.62634   1.62898   1.64258
 Alpha virt. eigenvalues --    1.66157   1.67406   1.69293   1.70056   1.73468
 Alpha virt. eigenvalues --    1.76234   1.78115   1.78705   1.81305   1.82429
 Alpha virt. eigenvalues --    1.84133   1.85618   1.86782   1.87227   1.89280
 Alpha virt. eigenvalues --    1.89911   1.90753   1.91538   1.91853   1.93326
 Alpha virt. eigenvalues --    1.93663   1.94668   1.95995   1.96710   1.99062
 Alpha virt. eigenvalues --    2.05592   2.08009   2.08637   2.09129   2.10224
 Alpha virt. eigenvalues --    2.11300   2.12757   2.15123   2.16401   2.17996
 Alpha virt. eigenvalues --    2.18709   2.20691   2.22140   2.25755   2.26953
 Alpha virt. eigenvalues --    2.29018   2.35188   2.37832   2.43217   2.43949
 Alpha virt. eigenvalues --    2.44923   2.48819   2.50550   2.52730   2.58224
 Alpha virt. eigenvalues --    2.59211   2.59829   2.62490   2.64908   2.66125
 Alpha virt. eigenvalues --    2.67661   2.68503   2.69175   2.70320   2.70843
 Alpha virt. eigenvalues --    2.71907   2.72492   2.72854   2.73258   2.73873
 Alpha virt. eigenvalues --    2.74399   2.74710   2.74805   2.75248   2.75539
 Alpha virt. eigenvalues --    2.77124   2.82990   2.83599   2.85070   2.87208
 Alpha virt. eigenvalues --    2.90212   2.93051   2.95227   2.97180   2.98020
 Alpha virt. eigenvalues --    3.03330   3.07550   3.08243   3.13484   3.14319
 Alpha virt. eigenvalues --    3.16769   3.17236   3.17845   3.19022   3.22930
 Alpha virt. eigenvalues --    3.28632   3.33182   3.33732   3.41504   3.44409
 Alpha virt. eigenvalues --    3.50210   3.51129   3.58366   3.64855   3.66236
 Alpha virt. eigenvalues --    3.67563   3.69263   3.75766   3.76539   3.78544
 Alpha virt. eigenvalues --    3.79539   3.87651   3.95955   4.47314   4.48164
 Alpha virt. eigenvalues --    4.59140   4.67728   4.68027   4.71508   4.77094
 Alpha virt. eigenvalues --    4.85103   4.89522   4.95239   5.00554   5.09768
 Alpha virt. eigenvalues --    5.21979   5.26553   5.50083
          Condensed to atoms (all electrons):
              1          2          3          4          5          6
     1  O    8.618308   0.494648  -0.052314  -0.043689  -0.023785  -0.001513
     2  P    0.494648  11.914107   0.551194   0.495511   0.144318  -0.017524
     3  O   -0.052314   0.551194   8.497208  -0.050154  -0.031253   0.002195
     4  O   -0.043689   0.495511  -0.050154   8.646282  -0.027489   0.000355
     5  O   -0.023785   0.144318  -0.031253  -0.027489   8.523895   0.277805
     6  C   -0.001513  -0.017524   0.002195   0.000355   0.277805   4.192637
     7  O   -0.000036  -0.009277  -0.006707  -0.002895  -0.088531   0.575050
     8  C   -0.000034  -0.006786  -0.000076  -0.000160  -0.075599   0.329241
     9  O    0.000000   0.000209   0.000001   0.000000   0.001156  -0.031351
    10  C    0.000000   0.000182  -0.000009   0.000000   0.004443  -0.058931
    11  O    0.000000  -0.000001   0.000000   0.000000   0.000004   0.002021
    12  P    0.000000   0.000000   0.000000   0.000000   0.000009   0.000149
    13  O    0.000000   0.000000   0.000000   0.000000   0.000000   0.000000
    14  O    0.000000   0.000000   0.000000   0.000000   0.000000   0.000001
    15  O    0.000000   0.000000   0.000000   0.000000   0.000000   0.000003
    16  H    0.000000   0.000122  -0.000003   0.000019   0.003777  -0.046708
    17  H    0.000000   0.000034   0.000001   0.000001   0.000145  -0.003132
    18  H   -0.000006   0.000351   0.000006   0.000001   0.002778   0.003588
    19  H    0.000000   0.000066   0.000001   0.000000   0.000074  -0.000122
              7          8          9         10         11         12
     1  O   -0.000036  -0.000034   0.000000   0.000000   0.000000   0.000000
     2  P   -0.009277  -0.006786   0.000209   0.000182  -0.000001   0.000000
     3  O   -0.006707  -0.000076   0.000001  -0.000009   0.000000   0.000000
     4  O   -0.002895  -0.000160   0.000000   0.000000   0.000000   0.000000
     5  O   -0.088531  -0.075599   0.001156   0.004443   0.000004   0.000009
     6  C    0.575050   0.329241  -0.031351  -0.058931   0.002021   0.000149
     7  O    8.175944  -0.068719  -0.008652  -0.001347  -0.000010  -0.000006
     8  C   -0.068719   4.988579   0.190694   0.344507  -0.043016  -0.000191
     9  O   -0.008652   0.190694   8.451207  -0.049827   0.002706   0.000124
    10  C   -0.001347   0.344507  -0.049827   4.783188   0.221305  -0.018155
    11  O   -0.000010  -0.043016   0.002706   0.221305   8.541685   0.183835
    12  P   -0.000006  -0.000191   0.000124  -0.018155   0.183835  11.896636
    13  O    0.000000  -0.000017   0.000000   0.000214  -0.026838   0.488021
    14  O    0.000000  -0.000035   0.000000  -0.003527  -0.030652   0.494272
    15  O    0.000000   0.000116   0.000000  -0.001075  -0.036015   0.539471
    16  H    0.000824   0.386900  -0.033038  -0.038546   0.001554  -0.000320
    17  H    0.008821  -0.024112   0.254206  -0.002532   0.000082  -0.000037
    18  H    0.000201  -0.052578   0.003298   0.388140  -0.035563   0.001140
    19  H    0.000436  -0.044525  -0.002816   0.377078  -0.039661  -0.002491
             13         14         15         16         17         18
     1  O    0.000000   0.000000   0.000000   0.000000   0.000000  -0.000006
     2  P    0.000000   0.000000   0.000000   0.000122   0.000034   0.000351
     3  O    0.000000   0.000000   0.000000  -0.000003   0.000001   0.000006
     4  O    0.000000   0.000000   0.000000   0.000019   0.000001   0.000001
     5  O    0.000000   0.000000   0.000000   0.003777   0.000145   0.002778
     6  C    0.000000   0.000001   0.000003  -0.046708  -0.003132   0.003588
     7  O    0.000000   0.000000   0.000000   0.000824   0.008821   0.000201
     8  C   -0.000017  -0.000035   0.000116   0.386900  -0.024112  -0.052578
     9  O    0.000000   0.000000   0.000000  -0.033038   0.254206   0.003298
    10  C    0.000214  -0.003527  -0.001075  -0.038546  -0.002532   0.388140
    11  O   -0.026838  -0.030652  -0.036015   0.001554   0.000082  -0.035563
    12  P    0.488021   0.494272   0.539471  -0.000320  -0.000037   0.001140
    13  O    8.647441  -0.044007  -0.052482  -0.000005   0.000000  -0.000038
    14  O   -0.044007   8.644875  -0.052410   0.000004   0.000000   0.006836
    15  O   -0.052482  -0.052410   8.517669  -0.000002  -0.000005  -0.000737
    16  H   -0.000005   0.000004  -0.000002   0.546850   0.004893  -0.001191
    17  H    0.000000   0.000000  -0.000005   0.004893   0.330083   0.000033
    18  H   -0.000038   0.006836  -0.000737  -0.001191   0.000033   0.531462
    19  H   -0.000041  -0.000405   0.008175   0.005215   0.003901  -0.034133
             19
     1  O    0.000000
     2  P    0.000066
     3  O    0.000001
     4  O    0.000000
     5  O    0.000074
     6  C   -0.000122
     7  O    0.000436
     8  C   -0.044525
     9  O   -0.002816
    10  C    0.377078
    11  O   -0.039661
    12  P   -0.002491
    13  O   -0.000041
    14  O   -0.000405
    15  O    0.008175
    16  H    0.005215
    17  H    0.003901
    18  H   -0.034133
    19  H    0.594706
 Mulliken atomic charges:
              1
     1  O   -0.991580
     2  P    1.432846
     3  O   -0.910090
     4  O   -1.017782
     5  O   -0.711747
     6  C    0.776235
     7  O   -0.575095
     8  C    0.075812
     9  O   -0.777918
    10  C    0.054891
    11  O   -0.741435
    12  P    1.417544
    13  O   -1.012249
    14  O   -1.014952
    15  O   -0.922707
    16  H    0.169655
    17  H    0.427619
    18  H    0.186410
    19  H    0.134542
 Sum of Mulliken atomic charges =  -4.00000
 Mulliken charges with hydrogens summed into heavy atoms:
              1
     1  O   -0.991580
     2  P    1.432846
     3  O   -0.910090
     4  O   -1.017782
     5  O   -0.711747
     6  C    0.776235
     7  O   -0.575095
     8  C    0.245467
     9  O   -0.350299
    10  C    0.375844
    11  O   -0.741435
    12  P    1.417544
    13  O   -1.012249
    14  O   -1.014952
    15  O   -0.922707
 Sum of Mulliken charges with hydrogens summed into heavy atoms =  -4.00000
 DipInt: DoE/N= T F RetVal/Mat= T F Init=T NMatP=  1 IDeriv=0 Min/MaxMlt=  0  4
 Entering OneElI...
 OneElI was handed    33403195 working-precision words.
 Multipole integrals L=0 to 4 MinM= 0 MaxM= 0.
 Requested accuracy = 0.1000D-12
 PrsmSu:  NPrtUS=   1 ThrOK=F IAlg=1 NPAlg=1 LenDen=           0.
 Prism:   IPart=     0 DynPar=F LinDyn=F Incr=          18.
 PRISM was handed    33196523 working-precision words and  1895 shell-pairs
 IPart=  0 NShTot=        1895 NBatch=          66 AvBLen=        28.7
 PrSmSu:  NxtVal=             19.
 Electronic moments (au):
       -136.00000000          0.55798686          3.81225266         -0.37603226
      -4863.82310563       -733.24268077       -301.29708589         -0.71314796
         -1.77277357          0.79336092       2915.52510124       -268.58379638
       -337.05905063       -466.83350558       3847.75634022         97.09126482
         42.38026894         77.42344305        192.01183350       -114.06960689
    -270478.23390259     -11951.14255599      -2318.91958706       1980.44437258
        455.78143900        862.42494297       -774.61178290        242.87453463
        352.75846647     -19557.89405132     -12519.88197327      -1053.22692910
         -3.17591147       -166.91307537        -78.07440164
 Electronic spatial extent (au):  <R**2>=           5898.3629
 DipInt: DoE/N= F T RetVal/Mat= T F Init=T NMatP=  1 IDeriv=0 Min/MaxMlt=  0  4
 Nuclear    moments (au):
        132.00000000          0.00000000          0.00000000          0.00000000
       4546.19841957        621.35540380        208.07787693          0.00000000
          0.00000000          0.00000000      -2731.23482815        346.40996144
        302.05027290        436.41272246      -3636.33339935        -60.08452098
        -35.46335743        -52.24193992       -157.40671547        105.68149193
     238305.42811181       9009.49721632       1223.81130410      -1779.45342757
       -446.12959642       -794.91555545        781.66090921       -210.42944595
       -312.42348684      15048.98857801       8678.27362227        486.92608996
        -11.22092086        145.18555317         70.50928362
 Total      moments (au):
         -4.00000000          0.55798686          3.81225266         -0.37603226
       -317.62468606       -111.88727697        -93.21920896         -0.71314796
         -1.77277357          0.79336092        184.29027309         77.82616506
        -35.00877774        -30.42078313        211.42294087         37.00674384
          6.91691151         25.18150313         34.60511803         -8.38811496
     -32172.80579079      -2941.64533967      -1095.10828296        200.99094501
          9.65184258         67.50938751          7.04912631         32.44508869
         40.33497962      -4508.90547331      -3841.60835100       -566.30083914
        -14.39683233        -21.72752220         -7.56511802
 Traceless Quadrup. (au):
       -143.38096206         62.35644703         81.02451504         -0.71314796
         -1.77277357          0.79336092
 Charge=             -4.0000 electrons
 Dipole moment (field-independent basis, Debye):
    X=              1.4183    Y=              9.6898    Z=             -0.9558  Tot=              9.8396
 Quadrupole moment (field-independent basis, Debye-Ang):
   XX=           -427.2161   YY=           -150.4922   ZZ=           -125.3830
   XY=             -0.9592   XZ=             -2.3844   YZ=              1.0671
 Traceless Quadrupole moment (field-independent basis, Debye-Ang):
   XX=           -192.8523   YY=             83.8716   ZZ=            108.9807
   XY=             -0.9592   XZ=             -2.3844   YZ=              1.0671
 Octapole moment (field-independent basis, Debye-Ang**2):
  XXX=            131.1707  YYY=             55.3937  ZZZ=            -24.9179  XYY=            -21.6523
  XXY=            150.4827  XXZ=             26.3400  XZZ=              4.9232  YZZ=             17.9232
  YYZ=             24.6306  XYZ=             -5.9703
 Hexadecapole moment (field-independent basis, Debye-Ang**3):
 XXXX=         -12117.8206 YYYY=          -1107.9646 ZZZZ=           -412.4703 XXXY=             75.7028
 XXXZ=              3.6353 YYYX=             25.4273 YYYZ=              2.6550 ZZZX=             12.2204
 ZZZY=             15.1921 XXYY=          -1698.2699 XXZZ=          -1446.9338 YYZZ=           -213.2960
 XXYZ=             -5.4225 YYXZ=             -8.1836 ZZXY=             -2.8494
 N-N= 1.308469036443D+03 E-N=-6.361492691397D+03  KE= 1.542860158055D+03
 Entering OneElI...
 OneElI was handed    33286317 working-precision words.
 Calculate electrostatic properties
    NBasis =   241  MinDer = 0  MaxDer = 0
    NGrid  =    19  NMatD  =   1
 Requested accuracy = 0.1000D-12
 PrsmSu:  NPrtUS=   1 ThrOK=F IAlg=1 NPAlg=1 LenDen=           0.
 Prism:   IPart=     0 DynPar=F LinDyn=F Incr=         331.
 PRISM was handed    33093484 working-precision words and  1744 shell-pairs
 IPart=  0 NShTot=       33136 NBatch=        1744 AvBLen=        19.0
 PrSmSu:  NxtVal=            332.
 --------------------------------------------------------
       Center         ----      EFG at Nuclei      ----
                      3XX-RR        3YY-RR        3ZZ-RR
 --------------------------------------------------------
     1   Atom        0.214265     -0.911521      0.697256
     2   Atom       -0.758072      0.232135      0.525937
     3   Atom        0.287568      0.589720     -0.877287
     4   Atom       -0.444351     -0.054257      0.498608
     5   Atom       -0.306738     -0.477925      0.784662
     6   Atom        0.258840     -0.015382     -0.243457
     7   Atom        0.790453      0.178952     -0.969404
     8   Atom        0.149079     -0.275707      0.126627
     9   Atom        1.759255     -0.659023     -1.100232
    10   Atom       -0.291153      0.188370      0.102783
    11   Atom       -1.723292      0.841151      0.882141
    12   Atom       -0.373429     -0.090326      0.463755
    13   Atom       -1.005883      0.474904      0.530979
    14   Atom        0.542744     -1.153842      0.611098
    15   Atom        0.321856      0.471925     -0.793781
    16   Atom        0.155641      0.142073     -0.297714
    17   Atom        0.261601      0.187811     -0.449412
    18   Atom        0.105919     -0.232745      0.126825
    19   Atom        0.145618      0.143739     -0.289357
 --------------------------------------------------------
                        XY            XZ            YZ
 --------------------------------------------------------
     1   Atom        0.766024      0.059528     -0.294611
     2   Atom        0.160815     -0.365832      0.093962
     3   Atom       -0.034293     -0.289742     -0.075146
     4   Atom       -0.872684      0.377162      0.448409
     5   Atom        1.102671      0.112518     -0.227895
     6   Atom       -0.024669      0.326262      0.244800
     7   Atom       -1.337158      0.165386      0.043456
     8   Atom        0.168131      0.011780     -0.168660
     9   Atom        0.664194      0.059999     -0.997000
    10   Atom        0.015317     -0.131137      0.082388
    11   Atom       -0.180598     -0.586795      0.482907
    12   Atom       -0.414503      0.219680      0.191799
    13   Atom        0.447303     -0.526013      0.241624
    14   Atom       -0.019547      0.031117     -0.416016
    15   Atom       -0.078224      0.248259      0.052768
    16   Atom        0.004636     -0.030513     -0.025971
    17   Atom        0.010366     -0.033467     -0.092237
    18   Atom        0.116263      0.027317     -0.087914
    19   Atom       -0.004372     -0.013992     -0.059515
 --------------------------------------------------------


 ---------------------------------------------------------------------------------
              Nuclear Quadrupole in Principal Axis System
 ---------------------------------------------------------------------------------

       Atom             a.u.   MegaHertz   Gauss  10(-4) cm-1        Axes

              Baa    -1.3405    96.997    34.611    32.355 -0.4419  0.8859  0.1410
     1 O(17)  Bbb     0.5658   -40.939   -14.608   -13.656  0.8400  0.3535  0.4117
              Bcc     0.7747   -56.058   -20.003   -18.699 -0.3149 -0.3004  0.9004
 
              Baa    -0.8839  -191.086   -68.184   -63.739  0.9530 -0.1590  0.2579
     2 P(31)  Bbb     0.2545    55.017    19.631    18.352  0.1868  0.9785 -0.0869
              Bcc     0.6294   136.069    48.553    45.388 -0.2385  0.1310  0.9623
 
              Baa    -0.9496    68.715    24.519    22.921  0.2291  0.0526  0.9720
     3 O(17)  Bbb     0.3546   -25.656    -9.155    -8.558  0.9703  0.0673 -0.2323
              Bcc     0.5951   -43.059   -15.365   -14.363 -0.0776  0.9964 -0.0356
 
              Baa    -1.3253    95.896    34.218    31.987  0.7331  0.6097 -0.3015
     4 O(17)  Bbb     0.5525   -39.976   -14.264   -13.335  0.6380 -0.4627  0.6156
              Bcc     0.7728   -55.920   -19.954   -18.653 -0.2358  0.6436  0.7281
 
              Baa    -1.5241   110.280    39.351    36.786 -0.6729  0.7322  0.1051
     5 O(17)  Bbb     0.6755   -48.876   -17.440   -16.303  0.6835  0.5612  0.4669
              Bcc     0.8486   -61.404   -21.910   -20.482 -0.2829 -0.3860  0.8780
 
              Baa    -0.5126   -68.792   -24.547   -22.947 -0.3639 -0.4259  0.8284
     6 C(13)  Bbb     0.0743     9.971     3.558     3.326 -0.3835  0.8790  0.2834
              Bcc     0.4383    58.821    20.989    19.621  0.8488  0.2146  0.4832
 
              Baa    -1.0736    77.687    27.721    25.914 -0.3908 -0.4451  0.8057
     7 O(17)  Bbb    -0.7864    56.907    20.306    18.982  0.4846  0.6447  0.5912
              Bcc     1.8601  -134.594   -48.026   -44.896  0.7826 -0.6215  0.0362
 
              Baa    -0.3864   -51.855   -18.503   -17.297 -0.2914  0.9068  0.3048
     8 C(13)  Bbb     0.1485    19.933     7.113     6.649  0.6330 -0.0561  0.7721
              Bcc     0.2379    31.922    11.390    10.648  0.7172  0.4179 -0.5576
 
              Baa    -1.9600   141.827    50.607    47.308 -0.1271  0.6434  0.7549
     9 O(17)  Bbb     0.0170    -1.232    -0.440    -0.411 -0.2504  0.7156 -0.6521
              Bcc     1.9430  -140.595   -50.168   -46.897  0.9598  0.2719 -0.0701
 
              Baa    -0.3337   -44.782   -15.979   -14.938  0.9510 -0.0752  0.2999
    10 C(13)  Bbb     0.0887    11.909     4.249     3.972 -0.2858 -0.5843  0.7596
              Bcc     0.2450    32.873    11.730    10.965 -0.1181  0.8081  0.5771
 
              Baa    -1.8515   133.975    47.806    44.689  0.9784  0.0289  0.2049
    11 O(17)  Bbb     0.4093   -29.614   -10.567    -9.878  0.1114  0.7611 -0.6390
              Bcc     1.4423  -104.361   -37.238   -34.811 -0.1744  0.6480  0.7414
 
              Baa    -0.7399  -159.960   -57.078   -53.357  0.7866  0.5712 -0.2346
    12 P(31)  Bbb     0.2039    44.079    15.728    14.703 -0.6010  0.7953 -0.0789
              Bcc     0.5360   115.881    41.349    38.654  0.1415  0.2031  0.9689
 
              Baa    -1.3085    94.684    33.786    31.583  0.9158 -0.2700  0.2973
    13 O(17)  Bbb     0.5513   -39.892   -14.235   -13.307  0.3852  0.7999 -0.4602
              Bcc     0.7572   -54.792   -19.551   -18.277 -0.1136  0.5360  0.8366
 
              Baa    -1.2471    90.237    32.199    30.100  0.0069  0.9758  0.2184
    14 O(17)  Bbb     0.5357   -38.764   -13.832   -12.930  0.9795  0.0374 -0.1979
              Bcc     0.7114   -51.473   -18.367   -17.170  0.2013 -0.2152  0.9556
 
              Baa    -0.8500    61.507    21.947    20.517 -0.2103 -0.0514  0.9763
    15 O(17)  Bbb     0.3424   -24.776    -8.841    -8.264  0.8724  0.4409  0.2111
              Bcc     0.5076   -36.732   -13.107   -12.252 -0.4413  0.8961 -0.0478
 
              Baa    -0.3012  -160.726   -57.351   -53.612  0.0659  0.0577  0.9962
    16 H(1)   Bbb     0.1411    75.293    26.867    25.115 -0.3608  0.9322 -0.0301
              Bcc     0.1601    85.433    30.485    28.497  0.9303  0.3574 -0.0823
 
              Baa    -0.4639  -247.504   -88.315   -82.558  0.0436  0.1393  0.9893
    17 H(1)   Bbb     0.1975   105.367    37.598    35.147 -0.2222  0.9668 -0.1263
              Bcc     0.2664   142.136    50.718    47.412  0.9740  0.2143 -0.0732
 
              Baa    -0.2892  -154.297   -55.057   -51.468 -0.2893  0.9325  0.2161
    18 H(1)   Bbb     0.1420    75.759    27.033    25.271  0.9546  0.2979 -0.0073
              Bcc     0.1472    78.538    28.024    26.197  0.0712 -0.2041  0.9764
 
              Baa    -0.2979  -158.922   -56.707   -53.011  0.0326  0.1338  0.9905
    19 H(1)   Bbb     0.1452    77.456    27.638    25.837  0.9364  0.3423 -0.0770
              Bcc     0.1527    81.466    29.069    27.174 -0.3493  0.9300 -0.1142
 

 ---------------------------------------------------------------------------------

 No NMR shielding tensors so no spin-rotation constants.
 Leave Link  601 at Mon Aug 24 19:16:01 2015, MaxMem=   33554432 cpu:       0.3
 Merz-Kollman atomic radii used.
 Atom Element Radius
    1     8    1.40
    2    15    1.80
    3     8    1.40
    4     8    1.40
    5     8    1.40
    6     6    1.50
    7     8    1.40
    8     6    1.50
    9     8    1.40
   10     6    1.50
   11     8    1.40
   12    15    1.80
   13     8    1.40
   14     8    1.40
   15     8    1.40
   16     1    1.20
   17     1    1.20
   18     1    1.20
   19     1    1.20
 Generate VDW surfaces: Layer= 4 Dens= 6 Start= 1.400 Inc= 0.200

 **********************************************************************

            Electrostatic Properties Using The SCF Density

 **********************************************************************

       Atomic Center    1 is at   3.840319 -2.094076 -0.420673
       Atomic Center    2 is at   3.399363 -0.606093  0.005061
       Atomic Center    3 is at   3.460317 -0.475729  1.479043
       Atomic Center    4 is at   4.395427  0.463763 -0.669201
       Atomic Center    5 is at   1.894391 -0.327411 -0.495992
       Atomic Center    6 is at   1.335423  0.835996 -0.129606
       Atomic Center    7 is at   1.959431  1.620116  0.546092
       Atomic Center    8 is at  -0.070549  1.166182 -0.562283
       Atomic Center    9 is at  -0.395511  2.495259 -0.150691
       Atomic Center   10 is at  -1.046609  0.179547  0.081580
       Atomic Center   11 is at  -2.363583  0.418208 -0.417756
       Atomic Center   12 is at  -3.645632 -0.439112  0.046025
       Atomic Center   13 is at  -4.974585  0.184723 -0.614536
       Atomic Center   14 is at  -3.472675 -1.965687 -0.434999
       Atomic Center   15 is at  -3.760681 -0.395746  1.520372
       Atomic Center   16 is at  -0.143515  1.093010 -1.646841
       Atomic Center   17 is at  -0.351539  2.633361  0.805332
       Atomic Center   18 is at  -0.744641 -0.839749 -0.159772
       Atomic Center   19 is at  -1.038641  0.313742  1.163577
      ESP Fit Center   20 is at   3.441717 -2.784475  1.369876
      ESP Fit Center   21 is at   3.840319 -2.891280  1.369876
      ESP Fit Center   22 is at   4.238921 -2.784475  1.369876
      ESP Fit Center   23 is at   4.530718 -2.492678  1.369876
      ESP Fit Center   24 is at   3.146049 -3.013439  1.165000
      ESP Fit Center   25 is at   3.525043 -3.202156  1.165000
      ESP Fit Center   26 is at   3.946618 -3.241221  1.165000
      ESP Fit Center   27 is at   4.353836 -3.125357  1.165000
      ESP Fit Center   28 is at   4.691701 -2.870213  1.165000
      ESP Fit Center   29 is at   4.914582 -2.510248  1.165000
      ESP Fit Center   30 is at   5.296883 -2.094076  0.890823
      ESP Fit Center   31 is at   2.614980 -2.881554  0.890823
      ESP Fit Center   32 is at   2.886473 -3.194874  0.890823
      ESP Fit Center   33 is at   3.235241 -3.419013  0.890823
      ESP Fit Center   34 is at   3.633029 -3.535814  0.890823
      ESP Fit Center   35 is at   4.047610 -3.535814  0.890823
      ESP Fit Center   36 is at   4.445398 -3.419013  0.890823
      ESP Fit Center   37 is at   4.794166 -3.194874  0.890823
      ESP Fit Center   38 is at   5.065659 -2.881554  0.890823
      ESP Fit Center   39 is at   5.237882 -2.504438  0.890823
      ESP Fit Center   40 is at   5.537729 -2.094076  0.559327
      ESP Fit Center   41 is at   2.467086 -3.091789  0.559327
      ESP Fit Center   42 is at   2.758349 -3.401953  0.559327
      ESP Fit Center   43 is at   3.117597 -3.629939  0.559327
      ESP Fit Center   44 is at   3.522256 -3.761420  0.559327
      ESP Fit Center   45 is at   3.946900 -3.788137  0.559327
      ESP Fit Center   46 is at   4.364848 -3.708409  0.559327
      ESP Fit Center   47 is at   4.749837 -3.527247  0.559327
      ESP Fit Center   48 is at   5.077678 -3.256033  0.559327
      ESP Fit Center   49 is at   5.327771 -2.911810  0.559327
      ESP Fit Center   50 is at   5.484402 -2.516205  0.559327
      ESP Fit Center   51 is at   5.704390 -2.094076  0.185000
      ESP Fit Center   52 is at   2.160849 -2.902866  0.185000
      ESP Fit Center   53 is at   2.382930 -3.256305  0.185000
      ESP Fit Center   54 is at   2.678090 -3.551465  0.185000
      ESP Fit Center   55 is at   3.031529 -3.773546  0.185000
      ESP Fit Center   56 is at   3.425524 -3.911411  0.185000
      ESP Fit Center   57 is at   3.840319 -3.958147  0.185000
      ESP Fit Center   58 is at   4.255114 -3.911411  0.185000
      ESP Fit Center   59 is at   4.649109 -3.773546  0.185000
      ESP Fit Center   60 is at   5.002548 -3.551465  0.185000
      ESP Fit Center   61 is at   5.297708 -3.256305  0.185000
      ESP Fit Center   62 is at   5.519789 -2.902866  0.185000
      ESP Fit Center   63 is at   5.657654 -2.508871  0.185000
      ESP Fit Center   64 is at   5.789582 -2.094076 -0.215797
      ESP Fit Center   65 is at   5.744009 -1.675042 -0.215797
      ESP Fit Center   66 is at   1.993094 -2.716479 -0.215797
      ESP Fit Center   67 is at   2.170079 -3.099026 -0.215797
      ESP Fit Center   68 is at   2.425163 -3.434583 -0.215797
      ESP Fit Center   69 is at   2.746418 -3.707460 -0.215797
      ESP Fit Center   70 is at   3.118823 -3.904896 -0.215797
      ESP Fit Center   71 is at   3.524964 -4.017661 -0.215797
      ESP Fit Center   72 is at   3.945850 -4.040480 -0.215797
      ESP Fit Center   73 is at   4.361802 -3.972288 -0.215797
      ESP Fit Center   74 is at   4.753370 -3.816273 -0.215797
      ESP Fit Center   75 is at   5.102245 -3.579730 -0.215797
      ESP Fit Center   76 is at   5.392114 -3.273720 -0.215797
      ESP Fit Center   77 is at   5.609422 -2.912550 -0.215797
      ESP Fit Center   78 is at   5.744009 -2.513110 -0.215797
      ESP Fit Center   79 is at   5.789582 -2.094076 -0.625549
      ESP Fit Center   80 is at   5.744009 -1.675042 -0.625549
      ESP Fit Center   81 is at   1.993094 -2.716479 -0.625549
      ESP Fit Center   82 is at   2.170079 -3.099026 -0.625549
      ESP Fit Center   83 is at   2.425163 -3.434583 -0.625549
      ESP Fit Center   84 is at   2.746418 -3.707460 -0.625549
      ESP Fit Center   85 is at   3.118823 -3.904896 -0.625549
      ESP Fit Center   86 is at   3.524964 -4.017661 -0.625549
      ESP Fit Center   87 is at   3.945850 -4.040480 -0.625549
      ESP Fit Center   88 is at   4.361802 -3.972288 -0.625549
      ESP Fit Center   89 is at   4.753370 -3.816273 -0.625549
      ESP Fit Center   90 is at   5.102245 -3.579730 -0.625549
      ESP Fit Center   91 is at   5.392114 -3.273720 -0.625549
      ESP Fit Center   92 is at   5.609422 -2.912550 -0.625549
      ESP Fit Center   93 is at   5.744009 -2.513110 -0.625549
      ESP Fit Center   94 is at   5.704390 -2.094076 -1.026347
      ESP Fit Center   95 is at   5.657654 -1.679281 -1.026347
      ESP Fit Center   96 is at   2.022985 -2.508871 -1.026347
      ESP Fit Center   97 is at   2.160849 -2.902866 -1.026347
      ESP Fit Center   98 is at   2.382930 -3.256305 -1.026347
      ESP Fit Center   99 is at   2.678090 -3.551465 -1.026347
      ESP Fit Center  100 is at   3.031529 -3.773546 -1.026347
      ESP Fit Center  101 is at   3.425524 -3.911411 -1.026347
      ESP Fit Center  102 is at   3.840319 -3.958147 -1.026347
      ESP Fit Center  103 is at   4.255114 -3.911411 -1.026347
      ESP Fit Center  104 is at   4.649109 -3.773546 -1.026347
      ESP Fit Center  105 is at   5.002548 -3.551465 -1.026347
      ESP Fit Center  106 is at   5.297708 -3.256305 -1.026347
      ESP Fit Center  107 is at   5.519789 -2.902866 -1.026347
      ESP Fit Center  108 is at   5.657654 -2.508871 -1.026347
      ESP Fit Center  109 is at   5.537729 -2.094076 -1.400673
      ESP Fit Center  110 is at   5.484402 -1.671948 -1.400673
      ESP Fit Center  111 is at   2.156294 -2.306818 -1.400673
      ESP Fit Center  112 is at   2.262108 -2.718934 -1.400673
      ESP Fit Center  113 is at   2.467086 -3.091789 -1.400673
      ESP Fit Center  114 is at   2.758349 -3.401953 -1.400673
      ESP Fit Center  115 is at   3.117597 -3.629939 -1.400673
      ESP Fit Center  116 is at   3.522256 -3.761420 -1.400673
      ESP Fit Center  117 is at   3.946900 -3.788137 -1.400673
      ESP Fit Center  118 is at   4.364848 -3.708409 -1.400673
      ESP Fit Center  119 is at   4.749837 -3.527247 -1.400673
      ESP Fit Center  120 is at   5.077678 -3.256033 -1.400673
      ESP Fit Center  121 is at   5.327771 -2.911810 -1.400673
      ESP Fit Center  122 is at   5.484402 -2.516205 -1.400673
      ESP Fit Center  123 is at   5.296883 -2.094076 -1.732169
      ESP Fit Center  124 is at   5.237882 -1.683715 -1.732169
      ESP Fit Center  125 is at   2.442756 -2.504438 -1.732169
      ESP Fit Center  126 is at   2.614980 -2.881554 -1.732169
      ESP Fit Center  127 is at   2.886473 -3.194874 -1.732169
      ESP Fit Center  128 is at   3.235241 -3.419013 -1.732169
      ESP Fit Center  129 is at   3.633029 -3.535814 -1.732169
      ESP Fit Center  130 is at   4.047610 -3.535814 -1.732169
      ESP Fit Center  131 is at   4.445398 -3.419013 -1.732169
      ESP Fit Center  132 is at   4.794166 -3.194874 -1.732169
      ESP Fit Center  133 is at   5.065659 -2.881554 -1.732169
      ESP Fit Center  134 is at   5.237882 -2.504438 -1.732169
      ESP Fit Center  135 is at   4.992378 -2.094076 -2.006347
      ESP Fit Center  136 is at   4.914582 -1.677904 -2.006347
      ESP Fit Center  137 is at   2.707876 -2.305767 -2.006347
      ESP Fit Center  138 is at   2.860819 -2.700557 -2.006347
      ESP Fit Center  139 is at   3.146049 -3.013439 -2.006347
      ESP Fit Center  140 is at   3.525043 -3.202156 -2.006347
      ESP Fit Center  141 is at   3.946618 -3.241221 -2.006347
      ESP Fit Center  142 is at   4.353836 -3.125357 -2.006347
      ESP Fit Center  143 is at   4.691701 -2.870213 -2.006347
      ESP Fit Center  144 is at   4.914582 -2.510248 -2.006347
      ESP Fit Center  145 is at   4.637523 -2.094076 -2.211222
      ESP Fit Center  146 is at   4.530718 -1.695474 -2.211222
      ESP Fit Center  147 is at   3.043115 -2.094076 -2.211222
      ESP Fit Center  148 is at   3.149920 -2.492678 -2.211222
      ESP Fit Center  149 is at   3.441717 -2.784475 -2.211222
      ESP Fit Center  150 is at   3.840319 -2.891280 -2.211222
      ESP Fit Center  151 is at   4.238921 -2.784475 -2.211222
      ESP Fit Center  152 is at   4.530718 -2.492678 -2.211222
      ESP Fit Center  153 is at   4.247826 -2.094076 -2.337843
      ESP Fit Center  154 is at   4.044073 -1.741165 -2.337843
      ESP Fit Center  155 is at   3.636566 -1.741165 -2.337843
      ESP Fit Center  156 is at   3.432812 -2.094076 -2.337843
      ESP Fit Center  157 is at   3.636566 -2.446988 -2.337843
      ESP Fit Center  158 is at   4.044073 -2.446988 -2.337843
      ESP Fit Center  159 is at   3.840319 -2.094076 -2.380673
      ESP Fit Center  160 is at   1.657150 -1.240207  1.711811
      ESP Fit Center  161 is at   1.850348 -1.624896  1.711811
      ESP Fit Center  162 is at   2.127054 -1.954661  1.711811
      ESP Fit Center  163 is at   2.472350 -2.211725  1.711811
      ESP Fit Center  164 is at   2.867622 -2.382229  1.711811
      ESP Fit Center  165 is at   3.291561 -2.456980  1.711811
      ESP Fit Center  166 is at   3.721311 -2.431950  1.711811
      ESP Fit Center  167 is at   4.133704 -2.308488  1.711811
      ESP Fit Center  168 is at   5.509022 -0.606093  1.383371
      ESP Fit Center  169 is at   5.465837 -0.181422  1.383371
      ESP Fit Center  170 is at   5.338051  0.225864  1.383371
      ESP Fit Center  171 is at   5.130894  0.599089  1.383371
      ESP Fit Center  172 is at   4.852848  0.922973  1.383371
      ESP Fit Center  173 is at   4.515297  1.184258  1.383371
      ESP Fit Center  174 is at   4.132058  1.372245  1.383371
      ESP Fit Center  175 is at   1.300527 -0.819524  1.383371
      ESP Fit Center  176 is at   1.386454 -1.237647  1.383371
      ESP Fit Center  177 is at   1.554789 -1.629915  1.383371
      ESP Fit Center  178 is at   1.798641 -1.980267  1.383371
      ESP Fit Center  179 is at   2.108027 -2.274360  1.383371
      ESP Fit Center  180 is at   2.470281 -2.500155  1.383371
      ESP Fit Center  181 is at   2.870571 -2.648406  1.383371
      ESP Fit Center  182 is at   3.292510 -2.713045  1.383371
      ESP Fit Center  183 is at   4.852848 -2.135159  1.383371
      ESP Fit Center  184 is at   5.130894 -1.811274  1.383371
      ESP Fit Center  185 is at   5.338051 -1.438049  1.383371
      ESP Fit Center  186 is at   5.465837 -1.030764  1.383371
      ESP Fit Center  187 is at   5.707111 -0.606093  1.017334
      ESP Fit Center  188 is at   5.667818 -0.182045  1.017334
      ESP Fit Center  189 is at   5.551274  0.227562  1.017334
      ESP Fit Center  190 is at   4.030908  1.613559  1.017334
      ESP Fit Center  191 is at   1.247451 -1.439748  1.017334
      ESP Fit Center  192 is at   1.437275 -1.820966  1.017334
      ESP Fit Center  193 is at   1.693916 -2.160813  1.017334
      ESP Fit Center  194 is at   2.008633 -2.447716  1.017334
      ESP Fit Center  195 is at   2.370710 -2.671905  1.017334
      ESP Fit Center  196 is at   5.361450 -1.820966  1.017334
      ESP Fit Center  197 is at   5.551274 -1.439748  1.017334
      ESP Fit Center  198 is at   5.667818 -1.030141  1.017334
      ESP Fit Center  199 is at   5.842251 -0.606093  0.623685
      ESP Fit Center  200 is at   5.805138 -0.181890  0.623685
      ESP Fit Center  201 is at   1.283759 -1.827537  0.623685
      ESP Fit Center  202 is at   1.528001 -2.176351  0.623685
      ESP Fit Center  203 is at   1.829104 -2.477454  0.623685
      ESP Fit Center  204 is at   2.177918 -2.721697  0.623685
      ESP Fit Center  205 is at   5.514966 -1.827537  0.623685
      ESP Fit Center  206 is at   5.694927 -1.441610  0.623685
      ESP Fit Center  207 is at   5.805138 -1.030296  0.623685
      ESP Fit Center  208 is at   5.910756 -0.606093  0.213161
      ESP Fit Center  209 is at   1.586247 -2.343823  0.213161
      ESP Fit Center  210 is at   1.906005 -2.625246  0.213161
      ESP Fit Center  211 is at   5.767298 -1.442738  0.213161
      ESP Fit Center  212 is at   5.874631 -1.030520  0.213161
      ESP Fit Center  213 is at   1.586247 -2.343823 -0.203039
      ESP Fit Center  214 is at   1.906005 -2.625246 -0.203039
      ESP Fit Center  215 is at   5.767298 -1.442738 -0.203039
      ESP Fit Center  216 is at   5.874631 -1.030520 -0.203039
      ESP Fit Center  217 is at   1.829104 -2.477454 -0.613562
      ESP Fit Center  218 is at   5.694927 -1.441610 -0.613562
      ESP Fit Center  219 is at   5.805138 -1.030296 -0.613562
      ESP Fit Center  220 is at   5.667818 -1.030141 -1.007211
      ESP Fit Center  221 is at   2.108027 -2.274360 -1.373248
      ESP Fit Center  222 is at   5.465837 -1.030764 -1.373248
      ESP Fit Center  223 is at   2.867622  1.170043 -1.701688
      ESP Fit Center  224 is at   2.127054 -1.954661 -1.701688
      ESP Fit Center  225 is at   5.203411 -1.033660 -1.701688
      ESP Fit Center  226 is at   2.881031  0.852354 -1.983573
      ESP Fit Center  227 is at   2.198704 -1.582901 -1.983573
      ESP Fit Center  228 is at   2.506768 -1.870612 -1.983573
      ESP Fit Center  229 is at   4.889781 -1.023689 -1.983573
      ESP Fit Center  230 is at   2.799669  0.432607 -2.211213
      ESP Fit Center  231 is at   2.480579 -1.377044 -2.211213
      ESP Fit Center  232 is at   2.799669 -1.644793 -2.211213
      ESP Fit Center  233 is at   4.318147 -1.377044 -2.211213
      ESP Fit Center  234 is at   4.526418 -1.016308 -2.211213
      ESP Fit Center  235 is at   4.217605 -0.606093 -2.378398
      ESP Fit Center  236 is at   3.399363  0.212150 -2.378398
      ESP Fit Center  237 is at   2.990241  0.102526 -2.378398
      ESP Fit Center  238 is at   2.690744 -0.196972 -2.378398
      ESP Fit Center  239 is at   2.581120 -0.606093 -2.378398
      ESP Fit Center  240 is at   2.690744 -1.015214 -2.378398
      ESP Fit Center  241 is at   2.990241 -1.314712 -2.378398
      ESP Fit Center  242 is at   3.399363 -1.424336 -2.378398
      ESP Fit Center  243 is at   3.808484 -1.314712 -2.378398
      ESP Fit Center  244 is at   4.107982 -1.015214 -2.378398
      ESP Fit Center  245 is at   3.814141 -0.606093 -2.480569
      ESP Fit Center  246 is at   3.606752 -0.246884 -2.480569
      ESP Fit Center  247 is at   3.191973 -0.246884 -2.480569
      ESP Fit Center  248 is at   2.984584 -0.606093 -2.480569
      ESP Fit Center  249 is at   3.191973 -0.965302 -2.480569
      ESP Fit Center  250 is at   3.606752 -0.965302 -2.480569
      ESP Fit Center  251 is at   3.399363 -0.606093 -2.514939
      ESP Fit Center  252 is at   3.460317 -0.475729  3.439043
      ESP Fit Center  253 is at   3.867824 -0.475729  3.396212
      ESP Fit Center  254 is at   3.664071 -0.122818  3.396212
      ESP Fit Center  255 is at   3.256564 -0.122818  3.396212
      ESP Fit Center  256 is at   3.052810 -0.475729  3.396212
      ESP Fit Center  257 is at   3.256564 -0.828641  3.396212
      ESP Fit Center  258 is at   3.664071 -0.828641  3.396212
      ESP Fit Center  259 is at   4.257521 -0.475729  3.269592
      ESP Fit Center  260 is at   4.150716 -0.077128  3.269592
      ESP Fit Center  261 is at   3.858919  0.214669  3.269592
      ESP Fit Center  262 is at   3.460317  0.321474  3.269592
      ESP Fit Center  263 is at   3.061715  0.214669  3.269592
      ESP Fit Center  264 is at   2.769919 -0.077128  3.269592
      ESP Fit Center  265 is at   2.663113 -0.475729  3.269592
      ESP Fit Center  266 is at   2.769919 -0.874331  3.269592
      ESP Fit Center  267 is at   3.061715 -1.166128  3.269592
      ESP Fit Center  268 is at   3.460317 -1.272933  3.269592
      ESP Fit Center  269 is at   3.858919 -1.166128  3.269592
      ESP Fit Center  270 is at   4.150716 -0.874331  3.269592
      ESP Fit Center  271 is at   4.612376 -0.475729  3.064716
      ESP Fit Center  272 is at   4.534580 -0.059558  3.064716
      ESP Fit Center  273 is at   4.311699  0.300408  3.064716
      ESP Fit Center  274 is at   3.973834  0.555552  3.064716
      ESP Fit Center  275 is at   3.566616  0.671415  3.064716
      ESP Fit Center  276 is at   3.145041  0.632350  3.064716
      ESP Fit Center  277 is at   2.766047  0.443634  3.064716
      ESP Fit Center  278 is at   2.480817  0.130751  3.064716
      ESP Fit Center  279 is at   2.327874 -0.264039  3.064716
      ESP Fit Center  280 is at   2.327874 -0.687420  3.064716
      ESP Fit Center  281 is at   2.480817 -1.082210  3.064716
      ESP Fit Center  282 is at   2.766047 -1.395092  3.064716
      ESP Fit Center  283 is at   3.145041 -1.583809  3.064716
      ESP Fit Center  284 is at   3.566616 -1.622874  3.064716
      ESP Fit Center  285 is at   3.973834 -1.507011  3.064716
      ESP Fit Center  286 is at   4.311699 -1.251867  3.064716
      ESP Fit Center  287 is at   4.534580 -0.891901  3.064716
      ESP Fit Center  288 is at   4.916881 -0.475729  2.790539
      ESP Fit Center  289 is at   4.857880 -0.065368  2.790539
      ESP Fit Center  290 is at   4.685657  0.311748  2.790539
      ESP Fit Center  291 is at   4.414164  0.625068  2.790539
      ESP Fit Center  292 is at   4.065396  0.849208  2.790539
      ESP Fit Center  293 is at   3.667608  0.966009  2.790539
      ESP Fit Center  294 is at   3.253027  0.966009  2.790539
      ESP Fit Center  295 is at   2.855239  0.849208  2.790539
      ESP Fit Center  296 is at   2.506471  0.625068  2.790539
      ESP Fit Center  297 is at   2.234978  0.311748  2.790539
      ESP Fit Center  298 is at   2.062755 -0.065368  2.790539
      ESP Fit Center  299 is at   2.003753 -0.475729  2.790539
      ESP Fit Center  300 is at   2.062755 -0.886091  2.790539
      ESP Fit Center  301 is at   2.234978 -1.263207  2.790539
      ESP Fit Center  302 is at   2.506471 -1.576527  2.790539
      ESP Fit Center  303 is at   2.855239 -1.800667  2.790539
      ESP Fit Center  304 is at   3.253027 -1.917468  2.790539
      ESP Fit Center  305 is at   3.667608 -1.917468  2.790539
      ESP Fit Center  306 is at   4.065396 -1.800667  2.790539
      ESP Fit Center  307 is at   4.414164 -1.576527  2.790539
      ESP Fit Center  308 is at   4.685657 -1.263207  2.790539
      ESP Fit Center  309 is at   4.857880 -0.886091  2.790539
      ESP Fit Center  310 is at   5.157727 -0.475729  2.459043
      ESP Fit Center  311 is at   5.104400 -0.053601  2.459043
      ESP Fit Center  312 is at   4.947769  0.342004  2.459043
      ESP Fit Center  313 is at   4.697676  0.686227  2.459043
      ESP Fit Center  314 is at   4.369835  0.957441  2.459043
      ESP Fit Center  315 is at   3.984846  1.138603  2.459043
      ESP Fit Center  316 is at   3.566899  1.218331  2.459043
      ESP Fit Center  317 is at   3.142254  1.191615  2.459043
      ESP Fit Center  318 is at   2.737595  1.060133  2.459043
      ESP Fit Center  319 is at   2.378348  0.832147  2.459043
      ESP Fit Center  320 is at   2.087084  0.521983  2.459043
      ESP Fit Center  321 is at   1.882106  0.149129  2.459043
      ESP Fit Center  322 is at   1.776292 -0.262988  2.459043
      ESP Fit Center  323 is at   1.776292 -0.688471  2.459043
      ESP Fit Center  324 is at   1.882106 -1.100588  2.459043
      ESP Fit Center  325 is at   2.087084 -1.473442  2.459043
      ESP Fit Center  326 is at   2.378348 -1.783606  2.459043
      ESP Fit Center  327 is at   2.737595 -2.011592  2.459043
      ESP Fit Center  328 is at   3.142254 -2.143073  2.459043
      ESP Fit Center  329 is at   3.566899 -2.169790  2.459043
      ESP Fit Center  330 is at   3.984846 -2.090062  2.459043
      ESP Fit Center  331 is at   4.369835 -1.908900  2.459043
      ESP Fit Center  332 is at   4.697676 -1.637686  2.459043
      ESP Fit Center  333 is at   4.947769 -1.293463  2.459043
      ESP Fit Center  334 is at   5.104400 -0.897858  2.459043
      ESP Fit Center  335 is at   5.324388 -0.475729  2.084716
      ESP Fit Center  336 is at   5.277652 -0.060935  2.084716
      ESP Fit Center  337 is at   5.139787  0.333061  2.084716
      ESP Fit Center  338 is at   4.917707  0.686500  2.084716
      ESP Fit Center  339 is at   4.622546  0.981660  2.084716
      ESP Fit Center  340 is at   4.269107  1.203740  2.084716
      ESP Fit Center  341 is at   3.875112  1.341605  2.084716
      ESP Fit Center  342 is at   3.460317  1.388341  2.084716
      ESP Fit Center  343 is at   1.780848  0.333061  2.084716
      ESP Fit Center  344 is at   1.642983 -0.060935  2.084716
      ESP Fit Center  345 is at   1.596247 -0.475729  2.084716
      ESP Fit Center  346 is at   1.642983 -0.890524  2.084716
      ESP Fit Center  347 is at   1.780848 -1.284519  2.084716
      ESP Fit Center  348 is at   2.002928 -1.637959  2.084716
      ESP Fit Center  349 is at   2.298088 -1.933119  2.084716
      ESP Fit Center  350 is at   2.651527 -2.155199  2.084716
      ESP Fit Center  351 is at   3.045523 -2.293064  2.084716
      ESP Fit Center  352 is at   3.460317 -2.339800  2.084716
      ESP Fit Center  353 is at   3.875112 -2.293064  2.084716
      ESP Fit Center  354 is at   4.269107 -2.155199  2.084716
      ESP Fit Center  355 is at   4.622546 -1.933119  2.084716
      ESP Fit Center  356 is at   4.917707 -1.637959  2.084716
      ESP Fit Center  357 is at   5.139787 -1.284519  2.084716
      ESP Fit Center  358 is at   5.277652 -0.890524  2.084716
      ESP Fit Center  359 is at   5.409580 -0.475729  1.683918
      ESP Fit Center  360 is at   5.364008 -0.056696  1.683918
      ESP Fit Center  361 is at   5.229420  0.342745  1.683918
      ESP Fit Center  362 is at   5.012112  0.703914  1.683918
      ESP Fit Center  363 is at   4.722243  1.009925  1.683918
      ESP Fit Center  364 is at   4.373368  1.246468  1.683918
      ESP Fit Center  365 is at   3.981800  1.402483  1.683918
      ESP Fit Center  366 is at   3.565848  1.470675  1.683918
      ESP Fit Center  367 is at   1.522481 -0.264977  1.683918
      ESP Fit Center  368 is at   4.722243 -1.961384  1.683918
      ESP Fit Center  369 is at   5.012112 -1.655373  1.683918
      ESP Fit Center  370 is at   5.229420 -1.294204  1.683918
      ESP Fit Center  371 is at   5.364008 -0.894763  1.683918
      ESP Fit Center  372 is at   5.547486  0.463763  0.916472
      ESP Fit Center  373 is at   5.469690  0.879934  0.916472
      ESP Fit Center  374 is at   5.246809  1.239900  0.916472
      ESP Fit Center  375 is at   4.908944  1.495044  0.916472
      ESP Fit Center  376 is at   4.501726  1.610907  0.916472
      ESP Fit Center  377 is at   5.851991  0.463763  0.642295
      ESP Fit Center  378 is at   5.792990  0.874124  0.642295
      ESP Fit Center  379 is at   5.620767  1.251240  0.642295
      ESP Fit Center  380 is at   5.349274  1.564560  0.642295
      ESP Fit Center  381 is at   5.000506  1.788700  0.642295
      ESP Fit Center  382 is at   4.602718  1.905501  0.642295
      ESP Fit Center  383 is at   4.188137  1.905501  0.642295
      ESP Fit Center  384 is at   5.792990  0.053401  0.642295
      ESP Fit Center  385 is at   6.092837  0.463763  0.310799
      ESP Fit Center  386 is at   6.039510  0.885891  0.310799
      ESP Fit Center  387 is at   5.882879  1.281496  0.310799
      ESP Fit Center  388 is at   5.632786  1.625719  0.310799
      ESP Fit Center  389 is at   5.304945  1.896933  0.310799
      ESP Fit Center  390 is at   4.919956  2.078095  0.310799
      ESP Fit Center  391 is at   4.502009  2.157823  0.310799
      ESP Fit Center  392 is at   4.077364  2.131107  0.310799
      ESP Fit Center  393 is at   6.039510  0.041634  0.310799
      ESP Fit Center  394 is at   6.259498  0.463763 -0.063528
      ESP Fit Center  395 is at   6.212762  0.878557 -0.063528
      ESP Fit Center  396 is at   6.074897  1.272553 -0.063528
      ESP Fit Center  397 is at   5.852817  1.625992 -0.063528
      ESP Fit Center  398 is at   5.557656  1.921152 -0.063528
      ESP Fit Center  399 is at   5.204217  2.143232 -0.063528
      ESP Fit Center  400 is at   4.810222  2.281097 -0.063528
      ESP Fit Center  401 is at   4.395427  2.327833 -0.063528
      ESP Fit Center  402 is at   3.980633  2.281097 -0.063528
      ESP Fit Center  403 is at   6.074897 -0.345027 -0.063528
      ESP Fit Center  404 is at   6.212762  0.048968 -0.063528
      ESP Fit Center  405 is at   6.344690  0.463763 -0.464325
      ESP Fit Center  406 is at   6.299118  0.882796 -0.464325
      ESP Fit Center  407 is at   6.164530  1.282237 -0.464325
      ESP Fit Center  408 is at   5.947222  1.643406 -0.464325
      ESP Fit Center  409 is at   5.657353  1.949417 -0.464325
      ESP Fit Center  410 is at   5.308479  2.185960 -0.464325
      ESP Fit Center  411 is at   4.916910  2.341975 -0.464325
      ESP Fit Center  412 is at   4.500958  2.410167 -0.464325
      ESP Fit Center  413 is at   4.080072  2.387347 -0.464325
      ESP Fit Center  414 is at   3.673931  2.274582 -0.464325
      ESP Fit Center  415 is at   5.947222 -0.715881 -0.464325
      ESP Fit Center  416 is at   6.164530 -0.354712 -0.464325
      ESP Fit Center  417 is at   6.299118  0.044729 -0.464325
      ESP Fit Center  418 is at   6.344690  0.463763 -0.874077
      ESP Fit Center  419 is at   6.299118  0.882796 -0.874077
      ESP Fit Center  420 is at   6.164530  1.282237 -0.874077
      ESP Fit Center  421 is at   5.947222  1.643406 -0.874077
      ESP Fit Center  422 is at   5.657353  1.949417 -0.874077
      ESP Fit Center  423 is at   5.308479  2.185960 -0.874077
      ESP Fit Center  424 is at   4.916910  2.341975 -0.874077
      ESP Fit Center  425 is at   4.500958  2.410167 -0.874077
      ESP Fit Center  426 is at   4.080072  2.387347 -0.874077
      ESP Fit Center  427 is at   3.673931  2.274582 -0.874077
      ESP Fit Center  428 is at   3.301526  2.077146 -0.874077
      ESP Fit Center  429 is at   5.947222 -0.715881 -0.874077
      ESP Fit Center  430 is at   6.164530 -0.354712 -0.874077
      ESP Fit Center  431 is at   6.299118  0.044729 -0.874077
      ESP Fit Center  432 is at   6.259498  0.463763 -1.274874
      ESP Fit Center  433 is at   6.212762  0.878557 -1.274874
      ESP Fit Center  434 is at   6.074897  1.272553 -1.274874
      ESP Fit Center  435 is at   5.852817  1.625992 -1.274874
      ESP Fit Center  436 is at   5.557656  1.921152 -1.274874
      ESP Fit Center  437 is at   5.204217  2.143232 -1.274874
      ESP Fit Center  438 is at   4.810222  2.281097 -1.274874
      ESP Fit Center  439 is at   4.395427  2.327833 -1.274874
      ESP Fit Center  440 is at   3.980633  2.281097 -1.274874
      ESP Fit Center  441 is at   3.586637  2.143232 -1.274874
      ESP Fit Center  442 is at   3.233198  1.921152 -1.274874
      ESP Fit Center  443 is at   2.938038  1.625992 -1.274874
      ESP Fit Center  444 is at   5.557656 -0.993627 -1.274874
      ESP Fit Center  445 is at   5.852817 -0.698467 -1.274874
      ESP Fit Center  446 is at   6.074897 -0.345027 -1.274874
      ESP Fit Center  447 is at   6.212762  0.048968 -1.274874
      ESP Fit Center  448 is at   6.092837  0.463763 -1.649201
      ESP Fit Center  449 is at   6.039510  0.885891 -1.649201
      ESP Fit Center  450 is at   5.882879  1.281496 -1.649201
      ESP Fit Center  451 is at   5.632786  1.625719 -1.649201
      ESP Fit Center  452 is at   5.304945  1.896933 -1.649201
      ESP Fit Center  453 is at   4.919956  2.078095 -1.649201
      ESP Fit Center  454 is at   4.502009  2.157823 -1.649201
      ESP Fit Center  455 is at   4.077364  2.131107 -1.649201
      ESP Fit Center  456 is at   3.672705  1.999625 -1.649201
      ESP Fit Center  457 is at   3.313458  1.771639 -1.649201
      ESP Fit Center  458 is at   3.022194  1.461475 -1.649201
      ESP Fit Center  459 is at   5.304945 -0.969408 -1.649201
      ESP Fit Center  460 is at   5.632786 -0.698194 -1.649201
      ESP Fit Center  461 is at   5.882879 -0.353971 -1.649201
      ESP Fit Center  462 is at   6.039510  0.041634 -1.649201
      ESP Fit Center  463 is at   5.851991  0.463763 -1.980697
      ESP Fit Center  464 is at   5.792990  0.874124 -1.980697
      ESP Fit Center  465 is at   5.620767  1.251240 -1.980697
      ESP Fit Center  466 is at   5.349274  1.564560 -1.980697
      ESP Fit Center  467 is at   5.000506  1.788700 -1.980697
      ESP Fit Center  468 is at   4.602718  1.905501 -1.980697
      ESP Fit Center  469 is at   4.188137  1.905501 -1.980697
      ESP Fit Center  470 is at   3.790349  1.788700 -1.980697
      ESP Fit Center  471 is at   3.441581  1.564560 -1.980697
      ESP Fit Center  472 is at   3.170088  1.251240 -1.980697
      ESP Fit Center  473 is at   5.000506 -0.861175 -1.980697
      ESP Fit Center  474 is at   5.349274 -0.637035 -1.980697
      ESP Fit Center  475 is at   5.620767 -0.323715 -1.980697
      ESP Fit Center  476 is at   5.792990  0.053401 -1.980697
      ESP Fit Center  477 is at   5.547486  0.463763 -2.254874
      ESP Fit Center  478 is at   5.469690  0.879934 -2.254874
      ESP Fit Center  479 is at   5.246809  1.239900 -2.254874
      ESP Fit Center  480 is at   4.908944  1.495044 -2.254874
      ESP Fit Center  481 is at   4.501726  1.610907 -2.254874
      ESP Fit Center  482 is at   4.080151  1.571843 -2.254874
      ESP Fit Center  483 is at   3.701157  1.383126 -2.254874
      ESP Fit Center  484 is at   3.415927  1.070243 -2.254874
      ESP Fit Center  485 is at   3.262984  0.675453 -2.254874
      ESP Fit Center  486 is at   4.908944 -0.567518 -2.254874
      ESP Fit Center  487 is at   5.246809 -0.312375 -2.254874
      ESP Fit Center  488 is at   5.469690  0.047591 -2.254874
      ESP Fit Center  489 is at   5.192631  0.463763 -2.459750
      ESP Fit Center  490 is at   5.085826  0.862364 -2.459750
      ESP Fit Center  491 is at   4.794029  1.154161 -2.459750
      ESP Fit Center  492 is at   4.395427  1.260966 -2.459750
      ESP Fit Center  493 is at   3.996825  1.154161 -2.459750
      ESP Fit Center  494 is at   3.705029  0.862364 -2.459750
      ESP Fit Center  495 is at   3.598223  0.463763 -2.459750
      ESP Fit Center  496 is at   3.705029  0.065161 -2.459750
      ESP Fit Center  497 is at   3.996825 -0.226636 -2.459750
      ESP Fit Center  498 is at   4.395427 -0.333441 -2.459750
      ESP Fit Center  499 is at   4.794029 -0.226636 -2.459750
      ESP Fit Center  500 is at   5.085826  0.065161 -2.459750
      ESP Fit Center  501 is at   4.802934  0.463763 -2.586370
      ESP Fit Center  502 is at   4.599181  0.816674 -2.586370
      ESP Fit Center  503 is at   4.191674  0.816674 -2.586370
      ESP Fit Center  504 is at   3.987920  0.463763 -2.586370
      ESP Fit Center  505 is at   4.191674  0.110851 -2.586370
      ESP Fit Center  506 is at   4.599181  0.110851 -2.586370
      ESP Fit Center  507 is at   4.395427  0.463763 -2.629201
      ESP Fit Center  508 is at   1.203992 -0.726013  1.294557
      ESP Fit Center  509 is at   0.914890 -0.933892  1.089681
      ESP Fit Center  510 is at   1.200120 -1.246774  1.089681
      ESP Fit Center  511 is at   0.669051 -1.114889  0.815504
      ESP Fit Center  512 is at   0.940544 -1.428209  0.815504
[...]
 6991 Fit      -0.391502
 6992 Fit      -0.399742
 6993 Fit      -0.415007
 6994 Fit      -0.404939
 6995 Fit      -0.396139
 6996 Fit      -0.388487
 6997 Fit      -0.381888
 6998 Fit      -0.376285
 6999 Fit      -0.371647
 7000 Fit      -0.367965
 7001 Fit      -0.365245
 7002 Fit      -0.363498
 7003 Fit      -0.362742
 7004 Fit      -0.362996
 7005 Fit      -0.364280
 7006 Fit      -0.366612
 7007 Fit      -0.370009
 7008 Fit      -0.374478
 7009 Fit      -0.380005
 7010 Fit      -0.386545
 7011 Fit      -0.393992
 7012 Fit      -0.402168
 7013 Fit      -0.420200
 7014 Fit      -0.409459
 7015 Fit      -0.399778
 7016 Fit      -0.391243
 7017 Fit      -0.383844
 7018 Fit      -0.377548
 7019 Fit      -0.372331
 7020 Fit      -0.368188
 7021 Fit      -0.365124
 7022 Fit      -0.363153
 7023 Fit      -0.362293
 7024 Fit      -0.362560
 7025 Fit      -0.363965
 7026 Fit      -0.366513
 7027 Fit      -0.370195
 7028 Fit      -0.374981
 7029 Fit      -0.380803
 7030 Fit      -0.387544
 7031 Fit      -0.395020
 7032 Fit      -0.402983
 7033 Fit      -0.424034
 7034 Fit      -0.414219
 7035 Fit      -0.404479
 7036 Fit      -0.395403
 7037 Fit      -0.387290
 7038 Fit      -0.380269
 7039 Fit      -0.374396
 7040 Fit      -0.369702
 7041 Fit      -0.366212
 7042 Fit      -0.363952
 7043 Fit      -0.362945
 7044 Fit      -0.363205
 7045 Fit      -0.364734
 7046 Fit      -0.367513
 7047 Fit      -0.371498
 7048 Fit      -0.376604
 7049 Fit      -0.382696
 7050 Fit      -0.389576
 7051 Fit      -0.396993
 7052 Fit      -0.404683
 7053 Fit      -0.426152
 7054 Fit      -0.422146
 7055 Fit      -0.415408
 7056 Fit      -0.407062
 7057 Fit      -0.398241
 7058 Fit      -0.389794
 7059 Fit      -0.382242
 7060 Fit      -0.375872
 7061 Fit      -0.370847
 7062 Fit      -0.367264
 7063 Fit      -0.365188
 7064 Fit      -0.364655
 7065 Fit      -0.365672
 7066 Fit      -0.368202
 7067 Fit      -0.372158
 7068 Fit      -0.377388
 7069 Fit      -0.383662
 7070 Fit      -0.390675
 7071 Fit      -0.398081
 7072 Fit      -0.405538
 7073 Fit      -0.412709
 7074 Fit      -0.419155
 7075 Fit      -0.412881
 7076 Fit      -0.411623
 7077 Fit      -0.406784
 7078 Fit      -0.399454
 7079 Fit      -0.391156
 7080 Fit      -0.383197
 7081 Fit      -0.376449
 7082 Fit      -0.371422
 7083 Fit      -0.368402
 7084 Fit      -0.367531
 7085 Fit      -0.368829
 7086 Fit      -0.372182
 7087 Fit      -0.377328
 7088 Fit      -0.383840
 7089 Fit      -0.391145
 7090 Fit      -0.398567
 7091 Fit      -0.405337
 7092 Fit      -0.410493
 7093 Fit      -0.401291
 7094 Fit      -0.399194
 7095 Fit      -0.393018
 7096 Fit      -0.385105
 7097 Fit      -0.377925
 7098 Fit      -0.373140
 7099 Fit      -0.371589
 7100 Fit      -0.373456
 7101 Fit      -0.378331
 7102 Fit      -0.385222
 7103 Fit      -0.392626
 7104 Fit      -0.398663
 7105 Fit      -0.391591
 7106 Fit      -0.387716
 7107 Fit      -0.380283
 7108 Fit      -0.376889
 7109 Fit      -0.380392
 7110 Fit      -0.387624
 7111 Fit      -0.383516
 7112 Fit      -0.406887
 7113 Fit      -0.409551
 7114 Fit      -0.403024
 7115 Fit      -0.398223
 7116 Fit      -0.398780
 7117 Fit      -0.403969
 7118 Fit      -0.412527
 7119 Fit      -0.401056
 7120 Fit      -0.394286
 7121 Fit      -0.391088
 7122 Fit      -0.391168
 7123 Fit      -0.394261
 7124 Fit      -0.399995
 7125 Fit      -0.407798
 7126 Fit      -0.416921
 7127 Fit      -0.392381
 7128 Fit      -0.387663
 7129 Fit      -0.385344
 7130 Fit      -0.385264
 7131 Fit      -0.387319
 7132 Fit      -0.391390
 7133 Fit      -0.397282
 7134 Fit      -0.404678
 7135 Fit      -0.413125
 7136 Fit      -0.422111
 7137 Fit      -0.394651
 7138 Fit      -0.388177
 7139 Fit      -0.383809
 7140 Fit      -0.381321
 7141 Fit      -0.380604
 7142 Fit      -0.381608
 7143 Fit      -0.384299
 7144 Fit      -0.388625
 7145 Fit      -0.394478
 7146 Fit      -0.401662
 7147 Fit      -0.409869
 7148 Fit      -0.418686
 7149 Fit      -0.427667
 7150 Fit      -0.387390
 7151 Fit      -0.382536
 7152 Fit      -0.379325
 7153 Fit      -0.377648
 7154 Fit      -0.377461
 7155 Fit      -0.378754
 7156 Fit      -0.381526
 7157 Fit      -0.385766
 7158 Fit      -0.391421
 7159 Fit      -0.398378
 7160 Fit      -0.406428
 7161 Fit      -0.415250
 7162 Fit      -0.424420
 7163 Fit      -0.387785
 7164 Fit      -0.382601
 7165 Fit      -0.378861
 7166 Fit      -0.376457
 7167 Fit      -0.375345
 7168 Fit      -0.375513
 7169 Fit      -0.376971
 7170 Fit      -0.379736
 7171 Fit      -0.383816
 7172 Fit      -0.389196
 7173 Fit      -0.395814
 7174 Fit      -0.403544
 7175 Fit      -0.412159
 7176 Fit      -0.421314
 7177 Fit      -0.386129
 7178 Fit      -0.381334
 7179 Fit      -0.377821
 7180 Fit      -0.375517
 7181 Fit      -0.374390
 7182 Fit      -0.374435
 7183 Fit      -0.375669
 7184 Fit      -0.378112
 7185 Fit      -0.381787
 7186 Fit      -0.386701
 7187 Fit      -0.392835
 7188 Fit      -0.400122
 7189 Fit      -0.408420
 7190 Fit      -0.417474
 7191 Fit      -0.385052
 7192 Fit      -0.380526
 7193 Fit      -0.377275
 7194 Fit      -0.375237
 7195 Fit      -0.374387
 7196 Fit      -0.374727
 7197 Fit      -0.376276
 7198 Fit      -0.379059
 7199 Fit      -0.383102
 7200 Fit      -0.388419
 7201 Fit      -0.394995
 7202 Fit      -0.402764
 7203 Fit      -0.411577
 7204 Fit      -0.421146
 7205 Fit      -0.385298
 7206 Fit      -0.380974
 7207 Fit      -0.377942
 7208 Fit      -0.376138
 7209 Fit      -0.375535
 7210 Fit      -0.376132
 7211 Fit      -0.377945
 7212 Fit      -0.380999
 7213 Fit      -0.385319
 7214 Fit      -0.390918
 7215 Fit      -0.397782
 7216 Fit      -0.405846
 7217 Fit      -0.414953
 7218 Fit      -0.424793
 7219 Fit      -0.388923
 7220 Fit      -0.384087
 7221 Fit      -0.380680
 7222 Fit      -0.378604
 7223 Fit      -0.377806
 7224 Fit      -0.378265
 7225 Fit      -0.379986
 7226 Fit      -0.382988
 7227 Fit      -0.387291
 7228 Fit      -0.392909
 7229 Fit      -0.399829
 7230 Fit      -0.407991
 7231 Fit      -0.417244
 7232 Fit      -0.427282
 7233 Fit      -0.390472
 7234 Fit      -0.385914
 7235 Fit      -0.382931
 7236 Fit      -0.381402
 7237 Fit      -0.381262
 7238 Fit      -0.382486
 7239 Fit      -0.385074
 7240 Fit      -0.389035
 7241 Fit      -0.394380
 7242 Fit      -0.401098
 7243 Fit      -0.409136
 7244 Fit      -0.418362
 7245 Fit      -0.428507
 7246 Fit      -0.393145
 7247 Fit      -0.388994
 7248 Fit      -0.386542
 7249 Fit      -0.385650
 7250 Fit      -0.386240
 7251 Fit      -0.388277
 7252 Fit      -0.391750
 7253 Fit      -0.396652
 7254 Fit      -0.402967
 7255 Fit      -0.410645
 7256 Fit      -0.419571
 7257 Fit      -0.429527
 7258 Fit      -0.401131
 7259 Fit      -0.395789
 7260 Fit      -0.392615
 7261 Fit      -0.391352
 7262 Fit      -0.391855
 7263 Fit      -0.394042
 7264 Fit      -0.397869
 7265 Fit      -0.403299
 7266 Fit      -0.410283
 7267 Fit      -0.418727
 7268 Fit      -0.428461
 7269 Fit      -0.439221
 7270 Fit      -0.401199
 7271 Fit      -0.398661
 7272 Fit      -0.398417
 7273 Fit      -0.400276
 7274 Fit      -0.404122
 7275 Fit      -0.409866
 7276 Fit      -0.417410
 7277 Fit      -0.426616
 7278 Fit      -0.407981
 7279 Fit      -0.406592
 7280 Fit      -0.407891
 7281 Fit      -0.411635
 7282 Fit      -0.417647
 7283 Fit      -0.388898
 7284 Fit      -0.394316
 7285 Fit      -0.388119
 7286 Fit      -0.383303
 7287 Fit      -0.384542
 7288 Fit      -0.390805
 7289 Fit      -0.395770
 7290 Fit      -0.400795
 7291 Fit      -0.395098
 7292 Fit      -0.388380
 7293 Fit      -0.382468
 7294 Fit      -0.378886
 7295 Fit      -0.378435
 7296 Fit      -0.381237
 7297 Fit      -0.386824
 7298 Fit      -0.393948
 7299 Fit      -0.400435
 7300 Fit      -0.404081
 7301 Fit      -0.404067
 7302 Fit      -0.408305
 7303 Fit      -0.402923
 7304 Fit      -0.396418
 7305 Fit      -0.389607
 7306 Fit      -0.383416
 7307 Fit      -0.378591
 7308 Fit      -0.375596
 7309 Fit      -0.374646
 7310 Fit      -0.375789
 7311 Fit      -0.378977
 7312 Fit      -0.384083
 7313 Fit      -0.390812
 7314 Fit      -0.398476
 7315 Fit      -0.405825
 7316 Fit      -0.411348
 7317 Fit      -0.414101
 7318 Fit      -0.414169
 7319 Fit      -0.412118
 7320 Fit      -0.416758
 7321 Fit      -0.411622
 7322 Fit      -0.405436
 7323 Fit      -0.398606
 7324 Fit      -0.391734
 7325 Fit      -0.385407
 7326 Fit      -0.380073
 7327 Fit      -0.376020
 7328 Fit      -0.373403
 7329 Fit      -0.372277
 7330 Fit      -0.372643
 7331 Fit      -0.374476
 7332 Fit      -0.377762
 7333 Fit      -0.382504
 7334 Fit      -0.388691
 7335 Fit      -0.396194
 7336 Fit      -0.404582
 7337 Fit      -0.423749
 7338 Fit      -0.420759
 7339 Fit      -0.414801
 7340 Fit      -0.407897
 7341 Fit      -0.400636
 7342 Fit      -0.393546
 7343 Fit      -0.387063
 7344 Fit      -0.381495
 7345 Fit      -0.377033
 7346 Fit      -0.373778
 7347 Fit      -0.371764
 7348 Fit      -0.370983
 7349 Fit      -0.371407
 7350 Fit      -0.373008
 7351 Fit      -0.375781
 7352 Fit      -0.379758
 7353 Fit      -0.385020
 7354 Fit      -0.391673
 7355 Fit      -0.409842
 7356 Fit      -0.402156
 7357 Fit      -0.394857
 7358 Fit      -0.388278
 7359 Fit      -0.382634
 7360 Fit      -0.378056
 7361 Fit      -0.374602
 7362 Fit      -0.372283
 7363 Fit      -0.371078
 7364 Fit      -0.370949
 7365 Fit      -0.371859
 7366 Fit      -0.373781
 7367 Fit      -0.376721
 7368 Fit      -0.380730
 7369 Fit      -0.385932
 7370 Fit      -0.392520
 7371 Fit      -0.412012
 7372 Fit      -0.404184
 7373 Fit      -0.396867
 7374 Fit      -0.390313
 7375 Fit      -0.384684
 7376 Fit      -0.380070
 7377 Fit      -0.376506
 7378 Fit      -0.373987
 7379 Fit      -0.372486
 7380 Fit      -0.371962
 7381 Fit      -0.372369
 7382 Fit      -0.373671
 7383 Fit      -0.375844
 7384 Fit      -0.378898
 7385 Fit      -0.382893
 7386 Fit      -0.387962
 7387 Fit      -0.413505
 7388 Fit      -0.405609
 7389 Fit      -0.398339
 7390 Fit      -0.391906
 7391 Fit      -0.386439
 7392 Fit      -0.381995
 7393 Fit      -0.378584
 7394 Fit      -0.376186
 7395 Fit      -0.374764
 7396 Fit      -0.374269
 7397 Fit      -0.374654
 7398 Fit      -0.375872
 7399 Fit      -0.377892
 7400 Fit      -0.380704
 7401 Fit      -0.384336
 7402 Fit      -0.421533
 7403 Fit      -0.412965
 7404 Fit      -0.404974
 7405 Fit      -0.397859
 7406 Fit      -0.391789
 7407 Fit      -0.386835
 7408 Fit      -0.383004
 7409 Fit      -0.380269
 7410 Fit      -0.378581
 7411 Fit      -0.377884
 7412 Fit      -0.378122
 7413 Fit      -0.379239
 7414 Fit      -0.381186
 7415 Fit      -0.383931
 7416 Fit      -0.387469
 7417 Fit      -0.431044
 7418 Fit      -0.421721
 7419 Fit      -0.412928
 7420 Fit      -0.405084
 7421 Fit      -0.398396
 7422 Fit      -0.392937
 7423 Fit      -0.388704
 7424 Fit      -0.385657
 7425 Fit      -0.383737
 7426 Fit      -0.382880
 7427 Fit      -0.383024
 7428 Fit      -0.384105
 7429 Fit      -0.386067
 7430 Fit      -0.388860
 7431 Fit      -0.430560
 7432 Fit      -0.420637
 7433 Fit      -0.411988
 7434 Fit      -0.404775
 7435 Fit      -0.399016
 7436 Fit      -0.394661
 7437 Fit      -0.391638
 7438 Fit      -0.389868
 7439 Fit      -0.389275
 7440 Fit      -0.389790
 7441 Fit      -0.391348
 7442 Fit      -0.393887
 7443 Fit      -0.427589
 7444 Fit      -0.418219
 7445 Fit      -0.410746
 7446 Fit      -0.405054
 7447 Fit      -0.401015
 7448 Fit      -0.398511
 7449 Fit      -0.397442
 7450 Fit      -0.397725
 7451 Fit      -0.399292
 7452 Fit      -0.417993
 7453 Fit      -0.412666
 7454 Fit      -0.409245
 7455 Fit      -0.407585
 7456 Fit      -0.419966
 7457 Fit      -0.416226
 7458 Fit      -0.418726
 7459 Fit      -0.413852
 7460 Fit      -0.407584
 7461 Fit      -0.406800
 7462 Fit      -0.411514
 7463 Fit      -0.421419
 7464 Fit      -0.419649
 7465 Fit      -0.408101
 7466 Fit      -0.400466
 7467 Fit      -0.397264
 7468 Fit      -0.398639
 7469 Fit      -0.404334
 7470 Fit      -0.413476
 7471 Fit      -0.411459
 7472 Fit      -0.405901
 7473 Fit      -0.399540
 7474 Fit      -0.394224
 7475 Fit      -0.408870
 7476 Fit      -0.399042
 7477 Fit      -0.392063
 7478 Fit      -0.388886
 7479 Fit      -0.389777
 7480 Fit      -0.394321
 7481 Fit      -0.401275
 7482 Fit      -0.408498
 7483 Fit      -0.413448
 7484 Fit      -0.414420
 7485 Fit      -0.393696
 7486 Fit      -0.389945
 7487 Fit      -0.385642
 7488 Fit      -0.382412
 7489 Fit      -0.381287
 7490 Fit      -0.398159
 7491 Fit      -0.403802
 7492 Fit      -0.407983
 7493 Fit      -0.408610
 7494 Fit      -0.404892
 7495 Fit      -0.398080
 7496 Fit      -0.390580
 7497 Fit      -0.384624
 7498 Fit      -0.381616
 7499 Fit      -0.382005
 7500 Fit      -0.385268
 7501 Fit      -0.389923
 7502 Fit      -0.393866
 7503 Fit      -0.395293
 7504 Fit      -0.380546
 7505 Fit      -0.378070
 7506 Fit      -0.375405
 7507 Fit      -0.374059
 7508 Fit      -0.374668
 7509 Fit      -0.376993
 7510 Fit      -0.380553
 7511 Fit      -0.384856
 7512 Fit      -0.388848
 7513 Fit      -0.390739
 7514 Fit      -0.389199
 7515 Fit      -0.384780
 7516 Fit      -0.379662
 7517 Fit      -0.376125
 7518 Fit      -0.375370
 7519 Fit      -0.377114
 7520 Fit      -0.379761
 7521 Fit      -0.381277
 7522 Fit      -0.371795
 7523 Fit      -0.370252
 7524 Fit      -0.369267
 7525 Fit      -0.370264
 7526 Fit      -0.373095
 7527 Fit      -0.376449
 7528 Fit      -0.378125
 7529 Fit      -0.376566
 7530 Fit      -0.373136
 7531 Fit      -0.370837
 7532 Fit      -0.370965
 7533 Fit      -0.372014
 7534 Fit      -0.367220
 7535 Fit      -0.366837
 7536 Fit      -0.368536
 7537 Fit      -0.370259
 7538 Fit      -0.368806
 7539 Fit      -0.367507
 7540 Fit      -0.366698
 7541 Fit      -0.372894
 7542 Fit      -0.382681
 7543 Fit      -0.362372
 7544 Fit      -0.358454
 7545 Fit      -0.362009
 7546 Fit      -0.371906
 7547 Fit      -0.386337
 7548 Fit      -0.352404
 7549 Fit      -0.348197
 7550 Fit      -0.349916
 7551 Fit      -0.357097
 7552 Fit      -0.369222
 7553 Fit      -0.385355
 7554 Fit      -0.351679
 7555 Fit      -0.343272
 7556 Fit      -0.340234
 7557 Fit      -0.342153
 7558 Fit      -0.348805
 7559 Fit      -0.360052
 7560 Fit      -0.375673
 7561 Fit      -0.395026
 7562 Fit      -0.354539
 7563 Fit      -0.343281
 7564 Fit      -0.336843
 7565 Fit      -0.334770
 7566 Fit      -0.336809
 7567 Fit      -0.342868
 7568 Fit      -0.352961
 7569 Fit      -0.367150
 7570 Fit      -0.385406
 7571 Fit      -0.407325
 7572 Fit      -0.355124
 7573 Fit      -0.342957
 7574 Fit      -0.335396
 7575 Fit      -0.331990
 7576 Fit      -0.332484
 7577 Fit      -0.336779
 7578 Fit      -0.344906
 7579 Fit      -0.356998
 7580 Fit      -0.373236
 7581 Fit      -0.357370
 7582 Fit      -0.344803
 7583 Fit      -0.336489
 7584 Fit      -0.332030
 7585 Fit      -0.331182
 7586 Fit      -0.333837
 7587 Fit      -0.340006
 7588 Fit      -0.349802
 7589 Fit      -0.375562
 7590 Fit      -0.359038
 7591 Fit      -0.346864
 7592 Fit      -0.338629
 7593 Fit      -0.334017
 7594 Fit      -0.332829
 7595 Fit      -0.334977
 7596 Fit      -0.340478
 7597 Fit      -0.373662
 7598 Fit      -0.358679
 7599 Fit      -0.347806
 7600 Fit      -0.340772
 7601 Fit      -0.337360
 7602 Fit      -0.420224
 7603 Fit      -0.409735
 7604 Fit      -0.406214
 7605 Fit      -0.409180
 7606 Fit      -0.426391
 7607 Fit      -0.412664
 7608 Fit      -0.404882
 7609 Fit      -0.403517
 7610 Fit      -0.407373
 7611 Fit      -0.414132
 7612 Fit      -0.423016
 7613 Fit      -0.409445
 7614 Fit      -0.402538
 7615 Fit      -0.401819
 7616 Fit      -0.406215
 7617 Fit      -0.414037
 7618 Fit      -0.424474
 7619 Fit      -0.409564
 7620 Fit      -0.401922
 7621 Fit      -0.400668
 7622 Fit      -0.404857
 7623 Fit      -0.413279
 7624 Fit      -0.424110
 7625 Fit      -0.410162
 7626 Fit      -0.402100
 7627 Fit      -0.400325
 7628 Fit      -0.403991
 7629 Fit      -0.412273
 7630 Fit      -0.424007
 7631 Fit      -0.418415
 7632 Fit      -0.406098
 7633 Fit      -0.401017
 7634 Fit      -0.402082
 7635 Fit      -0.408559
 7636 Fit      -0.419726
 7637 Fit      -0.412545
 7638 Fit      -0.403977
 7639 Fit      -0.401982
 7640 Fit      -0.405746
 7641 Fit      -0.414739
 7642 Fit      -0.428412
 7643 Fit      -0.425380
 7644 Fit      -0.411281
 7645 Fit      -0.404621
 7646 Fit      -0.404223
 7647 Fit      -0.409459
 7648 Fit      -0.419959
 7649 Fit      -0.415845
 7650 Fit      -0.407686
 7651 Fit      -0.406237
 7652 Fit      -0.410831
 7653 Fit      -0.421148
 7654 Fit      -0.424740
 7655 Fit      -0.413135
 7656 Fit      -0.408916
 7657 Fit      -0.411279
 7658 Fit      -0.419823
 7659 Fit      -0.435065
 7660 Fit      -0.420399
 7661 Fit      -0.413231
 7662 Fit      -0.412807
 7663 Fit      -0.418638
 7664 Fit      -0.430388
 7665 Fit      -0.438063
 7666 Fit      -0.423600
 7667 Fit      -0.416752
 7668 Fit      -0.416995
 7669 Fit      -0.423729
 7670 Fit      -0.427599
 7671 Fit      -0.420949
 7672 Fit      -0.421434
 7673 Fit      -0.394594
 7674 Fit      -0.393215
 7675 Fit      -0.391527
 7676 Fit      -0.395256
 7677 Fit      -0.401719
 7678 Fit      -0.400494
 7679 Fit      -0.395808
 7680 Fit      -0.397277
 7681 Fit      -0.394635
 7682 Fit      -0.391138
 7683 Fit      -0.391384
 7684 Fit      -0.397864
 7685 Fit      -0.408069
 7686 Fit      -0.415440
 7687 Fit      -0.415252
 7688 Fit      -0.409424
 7689 Fit      -0.402774
 7690 Fit      -0.398757
 7691 Fit      -0.397761
 7692 Fit      -0.406883
 7693 Fit      -0.399364
 7694 Fit      -0.393256
 7695 Fit      -0.390546
 7696 Fit      -0.393499
 7697 Fit      -0.402396
 7698 Fit      -0.415626
 7699 Fit      -0.421677
 7700 Fit      -0.412791
 7701 Fit      -0.406264
 7702 Fit      -0.403229
 7703 Fit      -0.403474
 7704 Fit      -0.405525
 7705 Fit      -0.396290
 7706 Fit      -0.391550
 7707 Fit      -0.392806
 7708 Fit      -0.400329
 7709 Fit      -0.413862
 7710 Fit      -0.413262
 7711 Fit      -0.392788
 7712 Fit      -0.394146
 7713 Fit      -0.402041
 7714 Fit      -0.416586
 7715 Fit      -0.394096
 7716 Fit      -0.396112
 7717 Fit      -0.404326
 7718 Fit      -0.419043
 7719 Fit      -0.402920
 7720 Fit      -0.415406
 7721 Fit      -0.413814
 7722 Fit      -0.429948
 -----------------------------------------------------------------
 Leave Link  602 at Mon Aug 24 19:54:28 2015, MaxMem=   33554432 cpu:       2.4

 Test job not archived.
 1\1\GINC-NID04133\FOpt\RHF\6-31G(d)\C3H4O10P2(4-)\NMIH\24-Aug-2015\0\\
 #HF/6-31G* SCF=tight Test Pop=MK iop(6/33=2) iop(6/42=6) opt\\13DPG.pd
 b\\-4,1\O,4.1229830016,1.3415076252,1.3061003968\P,3.9338593349,0.3796
 90834,0.1710896856\O,4.1180978902,0.9436763641,-1.2027976126\O,4.42981
 39521,-1.01435792,0.4059053159\O,2.075237949,0.1628626643,0.3212398067
 \C,1.2779521149,-0.6542337498,-0.248033269\O,1.4716780156,-1.315141482
 9,-1.2507731494\C,-0.0953742535,-0.8610143482,0.4533888366\O,-0.330102
 4887,-2.2615293585,0.4351519087\C,-1.2701473007,-0.0946146999,-0.19036
 27048\O,-2.4173352193,-0.2444129494,0.5665282452\P,-3.9517756215,0.264
 5243431,-0.0450191272\O,-4.8636350899,-0.0626160436,1.1174235064\O,-3.
 7756366869,1.7428542657,-0.3218492599\O,-4.1699091631,-0.578892964,-1.
 284057572\H,-0.0132376441,-0.5675877328,1.4912113542\H,-0.0096110493,-
 2.5254526339,-0.4194748852\H,-0.9887344616,0.9570248832,-0.2789921664\
 H,-1.4081232796,-0.4782870964,-1.2006793097\\Version=AM64L-G09RevC.01\
 State=1-A\HF=-1545.7018981\RMSD=8.464e-09\RMSF=1.415e-05\Dipole=1.5577
 347,-1.6990955,0.0086572\Quadrupole=-141.4565319,68.3835684,73.0729635
 ,-1.4542292,-1.885296,-0.7631688\PG=C01 [X(C3H4O10P2)]\\@


 A people that values its privileges above its principles soon loses both.
 -- Dwight D. Eisenhower
 Job cpu time:  0 days  0 hours 39 minutes 49.1 seconds.
 File lengths (MBytes):  RWF=     42 Int=      0 D2E=      0 Chk=      5 Scr=      1
 Normal termination of Gaussian 09 at Mon Aug 24 19:54:28 2015.
